
 Primary working directories    : /var/tmp/pbs.367883.bp1/molpro.Zw7pi3boZF
 Secondary working directories  : /var/tmp/pbs.367883.bp1/molpro.Zw7pi3boZF
 Wavefunction directory         : /home/lb17101/molpro_test/inp/
 Main file repository           : /home/lb17101/molpro_test/inp/

 id        : uob

 Nodes                         nprocs
 bp1-13-16-02.data.bp.acrc.priv    1

 Using customized tuning parameters: mindgm=1; mindgv=20; mindgc=4; mindgr=1; noblas=0; minvec=7
 default implementation of scratch files=df  


 Variables initialized (934), CPU time= 0.01 sec
 geomtyp=xyz
 nosym
 noorient
 geometry={
  C      -1.840573378251       0.128601401846      -0.266969348729
  C      -0.641467697320      -0.584593813704      -0.829351626875
  O      -0.340877267224      -1.076800509025      -1.829304568379
  C       0.452772272033       0.259660103435      -0.329687188357
  O       0.653537303955       1.405590490465       0.531302724847
  C       1.227998090875      -0.965421713499       0.499024552574
  O       1.941530254299       0.042442958436       1.524546218334
  H      -1.462920332983      -0.011809819216       0.706685587195
  H      -2.548497553683       1.231393118008       0.119117938553
  H      -2.288440981337      -0.692280758374      -0.978996138734
  H       1.145174083299      -0.068506072503      -1.194196644009
  H       2.221713582024       1.475751985950       1.011523325425
  H       2.981587456336      -0.853684642087       1.455103168221
 }
 basis=vtz-f12
 hf
 uccsd(t)-f12c,cabs_singles=1,scale_trip=1
 Commands  initialized (763), CPU time= 0.01 sec, 617 directives.
 Default parameters read. Elapsed time= 0.06 sec

 Checking input...
 Passed
1


                                         ***  PROGRAM SYSTEM MOLPRO  ***
                                       Copyright, TTI GmbH Stuttgart, 2015
                                    Version 2019.2 linked Oct 25 2019 22:50:27


 **********************************************************************************************************************************
 LABEL *                                                                                 
  64 bit serial version                                                                  DATE: 22-Sep-20          TIME: 19:37:42  
 **********************************************************************************************************************************

 SHA1:             8dbd9ae1082e4ce945b0f27595c9eb2d4aa09004
 **********************************************************************************************************************************
 SETTING GEOMTYP        =    XYZ

 Variable memory set to 4096000000 words,  buffer space 

 ZSYMEL=NOSYM

 SETTING BASIS          =    VTZ-F12


 Recomputing integrals since basis changed


 Using spherical harmonics

 Library entry C      S cc-pVTZ-F12          selected for orbital group  1
 Library entry C      P cc-pVTZ-F12          selected for orbital group  1
 Library entry C      D cc-pVTZ-F12          selected for orbital group  1
 Library entry C      F cc-pVTZ-F12          selected for orbital group  1
 Library entry O      S cc-pVTZ-F12          selected for orbital group  2
 Library entry O      P cc-pVTZ-F12          selected for orbital group  2
 Library entry O      D cc-pVTZ-F12          selected for orbital group  2
 Library entry O      F cc-pVTZ-F12          selected for orbital group  2
 Library entry H      S cc-pVTZ-F12          selected for orbital group  7
 Library entry H      P cc-pVTZ-F12          selected for orbital group  7
 Library entry H      D cc-pVTZ-F12          selected for orbital group  7


 PROGRAM * SEWARD (Integral evaluation for generally contracted gaussian basis sets)     Author: Roland Lindh, 1990

 Geometry written to block  1 of record 700


 Point group  C1  



 ATOMIC COORDINATES

 NR  ATOM    CHARGE       X              Y              Z

   1  C       6.00   -3.478179597    0.243021429   -0.504498953
   2  C       6.00   -1.212198266   -1.104722202   -1.567247436
   3  O       8.00   -0.644164677   -2.034858053   -3.456884633
   4  C       6.00    0.855615591    0.490686481   -0.623018493
   5  O       8.00    1.235006517    2.656181070    1.004016639
   6  C       6.00    2.320580073   -1.824382633    0.943019734
   7  O       8.00    3.668960443    0.080205567    2.880974817
   8  H       1.00   -2.764518771   -0.022317324    1.335442216
   9  H       1.00   -4.815962406    2.326995745    0.225100280
  10  H       1.00   -4.324526707   -1.308221035   -1.850034579
  11  H       1.00    2.164065382   -0.129457715   -2.256704596
  12  H       1.00    4.198430197    2.788767081    1.911502054
  13  H       1.00    5.634383709   -1.613230170    2.749746471

 Bond lengths in Bohr (Angstrom)

  1- 2  2.842625305   1- 8  1.991255868   1- 9  2.581651958   1-10  2.221063424   2- 3  2.181408626
       ( 1.504252531)       ( 1.053727226)       ( 1.366151383)       ( 1.175336148)       ( 1.154351733)

  2- 4  2.777184061   4- 5  2.735058978   4- 6  3.155652336   4-11  2.183013963   6- 7  3.033357173
       ( 1.469622516)       ( 1.447330882)       ( 1.669899302)       ( 1.155201241)       ( 1.605183489)

 Bond angles

  1-2-3  137.18832835   1-2-4  101.18939038   2-1-8   89.80407349   2-1-9  154.34916256

  2- 1-10   75.29345858   2- 4- 5  139.49755468   2- 4- 6   95.33264109   2- 4-11   91.64155092

  3- 2- 4  110.21746418   4- 6- 7   93.59965854   5- 4- 6  102.78171756   5- 4-11  125.94186059

  6- 4-11   83.38064692   8- 1- 9   91.84224528   8- 1-10  127.10479336   9- 1-10  122.51587499

 NUCLEAR CHARGE:                   54
 NUMBER OF PRIMITIVE AOS:         630
 NUMBER OF SYMMETRY AOS:          561
 NUMBER OF CONTRACTIONS:          479   (  479A   )
 NUMBER OF CORE ORBITALS:           7   (    7A   )
 NUMBER OF VALENCE ORBITALS:       34   (   34A   )


 NUCLEAR REPULSION ENERGY  296.29260924


 Eigenvalues of metric

         1 0.311E-04 0.596E-04 0.661E-04 0.850E-04 0.113E-03 0.132E-03 0.149E-03 0.177E-03


 Contracted 2-electron integrals neglected if value below      1.0D-12
 AO integral compression algorithm  1   Integral accuracy      1.0D-12

     24568.922 MB (compressed) written to integral file ( 43.1%)


 NUMBER OF SORTED TWO-ELECTRON INTEGRALS: 6607958280.     BUFFER LENGTH:  32768
 NUMBER OF SEGMENTS: 138  SEGMENT LENGTH:   47999545      RECORD LENGTH: 262144

 Memory used in sort:      48.29 MW

 SORT1 READ  7133248288. AND WROTE  5683366798. INTEGRALS IN  32589 RECORDS. CPU TIME:    67.98 SEC, REAL TIME:   377.87 SEC
 SORT2 READ  5683366798. AND WROTE  6607958280. INTEGRALS IN  93723 RECORDS. CPU TIME:    78.60 SEC, REAL TIME:   434.45 SEC

 FILE SIZES:   FILE 1: 24607.5 MBYTE,  FILE 4: 68344.1 MBYTE,   TOTAL:  92951.6 MBYTE

 OPERATOR DM      FOR CENTER  0  COORDINATES:    0.000000    0.000000    0.000000


 **********************************************************************************************************************************
 DATASETS  * FILE   NREC   LENGTH (MB)   RECORD NAMES
              1      19    22753.92       500      610      700      900      950      970     1000      129      960     1100   
                                          VAR    BASINP    GEOM    SYMINP    ZMAT    AOBASIS   BASIS     P2S    ABASIS      S 
                                         1400     1410     1200     1210     1080     1600     1650     1300     1700   
                                           T        V       H0       H01     AOSYM     SMH    MOLCAS    ERIS     OPER   

 PROGRAMS   *        TOTAL       INT
 CPU TIMES  *       364.42    364.35
 REAL TIME  *      1061.81 SEC
 DISK USED  *        92.95 GB
 **********************************************************************************************************************************


 PROGRAM * RHF-SCF (CLOSED SHELL)       Authors: W. Meyer, H.-J. Werner


 NUMBER OF ELECTRONS:      27+   27-    SPACE SYMMETRY=1    SPIN SYMMETRY: Singlet 
 CONVERGENCE THRESHOLDS:    1.00E-05 (Density)    1.00E-07 (Energy)
 MAX. NUMBER OF ITERATIONS:       60
 INTERPOLATION TYPE:            DIIS
 INTERPOLATION STEPS:              2 (START)      1 (STEP)
 LEVEL SHIFTS:                  0.00 (CLOSED)  0.00 (OPEN) 



 Orbital guess generated from atomic densities. Full valence occupancy:   41

 Molecular orbital dump at record        2100.2

 Initial occupancy:  27

 ITERATION    DDIFF          GRAD             ENERGY        2-EL.EN.            DIPOLE MOMENTS         DIIS   ORB.
    1      0.000D+00      0.000D+00      -378.79566384    869.773015    1.60216   -0.52679    1.47079    0    start
    2      0.000D+00      0.401D-02      -378.88683944    859.424622    0.56145    1.26537    0.52358    1    diag
    3      0.470D-02      0.352D-02      -379.00192687    864.781127    1.01884    0.03054    0.70357    2    diag
    4      0.224D-02      0.534D-03      -379.00962379    864.215005    0.97285    0.16511    0.75304    3    diag
    5      0.612D-03      0.274D-03      -379.01183707    864.376703    0.98421    0.10358    0.65853    4    diag
    6      0.314D-03      0.138D-03      -379.01264937    864.230478    0.95718    0.11375    0.67012    5    diag
    7      0.225D-03      0.543D-04      -379.01282711    864.288119    0.95582    0.10727    0.65410    6    diag
    8      0.128D-03      0.270D-04      -379.01285279    864.258867    0.95184    0.10883    0.65314    7    diag
    9      0.450D-04      0.120D-04      -379.01285944    864.259829    0.94824    0.10764    0.65243    8    diag
   10      0.237D-04      0.573D-05      -379.01286134    864.264066    0.94799    0.10717    0.65197    9    orth
   11      0.109D-04      0.302D-05      -379.01286221    864.262000    0.94713    0.10732    0.65159    9    diag
   12      0.809D-05      0.174D-05      -379.01286255    864.262010    0.94693    0.10701    0.65200    9    diag
   13      0.528D-05      0.989D-06      -379.01286267    864.262642    0.94686    0.10700    0.65206    9    diag
   14      0.366D-05      0.557D-06      -379.01286269    864.262086    0.94687    0.10706    0.65219    9    diag
   15      0.166D-05      0.282D-06      -379.01286270    864.262603    0.94690    0.10697    0.65220    0    orth

 Final occupancy:  27

 !RHF STATE  1.1 Energy              -379.012862698384
 Nuclear energy                       296.29260924
 One-electron energy                -1107.43677335
 Two-electron energy                  432.13130141
 Virial quotient                       -1.00252076
 !RHF STATE  1.1 Dipole moment          0.94690467     0.10697370     0.65220074
 Dipole moment /Debye                   2.40663398     0.27188222     1.65762035

 Orbital energies:

         1.1          2.1          3.1          4.1          5.1          6.1          7.1          8.1          9.1         10.1
    -20.661035   -20.572755   -20.533265   -11.378424   -11.363440   -11.298277   -11.260741    -1.466358    -1.348389    -1.252593

        11.1         12.1         13.1         14.1         15.1         16.1         17.1         18.1         19.1         20.1
     -1.068566    -0.977055    -0.796115    -0.731491    -0.672923    -0.665716    -0.649365    -0.606464    -0.602693    -0.573463

        21.1         22.1         23.1         24.1         25.1         26.1         27.1         28.1         29.1
     -0.523224    -0.514148    -0.470251    -0.450652    -0.412979    -0.386177    -0.350528     0.009710     0.035331


 HOMO     27.1    -0.350528 =      -9.5383eV
 LUMO     28.1     0.009710 =       0.2642eV
 LUMO-HOMO         0.360237 =       9.8026eV


 **********************************************************************************************************************************
 DATASETS  * FILE   NREC   LENGTH (MB)   RECORD NAMES
              1      19    22753.92       500      610      700      900      950      970     1000      129      960     1100   
                                          VAR    BASINP    GEOM    SYMINP    ZMAT    AOBASIS   BASIS     P2S    ABASIS      S 
                                         1400     1410     1200     1210     1080     1600     1650     1300     1700   
                                           T        V       H0       H01     AOSYM     SMH    MOLCAS    ERIS     OPER   

              2       4        7.63       700     1000      520     2100   
                                         GEOM     BASIS   MCVARS     RHF  

 PROGRAMS   *        TOTAL    HF-SCF       INT
 CPU TIMES  *      1450.67   1086.25    364.35
 REAL TIME  *      2296.69 SEC
 DISK USED  *        92.95 GB
 **********************************************************************************************************************************


 PROGRAM * CCSD (Unrestricted open-shell coupled cluster)     Authors: C. Hampel, H.-J. Werner, 1991, M. Deegan, P.J. Knowles, 1992

                           UCCSD-F12 implementation by G. Knizia and H.-J. Werner, 2008

                   Density fitting integral evaluation by F.R. Manby, 2003,2007, G. Knizia, 2010


 Basis set AUG-CC-PVTZ/JKFIT generated.  Number of basis functions:   1004 
 Basis set CC-PVTZ-F12/OPTRI generated.  Number of basis functions:   771 
 Basis set AUG-CC-PVTZ/MP2FIT generated. Number of basis functions:   1018 

 Convergence thresholds:  THRVAR = 1.00D-08  THRDEN = 1.00D-06

 CCSD(T)     terms to be evaluated (factor= 1.000)


 Number of core orbitals:           7 (   7 )
 Number of closed-shell orbitals:  20 (  20 )
 Number of external orbitals:     452 ( 452 )

 Memory could be reduced to 2856.27 Mwords without degradation in triples

 Number of N-1 electron functions:              40
 Number of N-2 electron functions:             780
 Number of singly external CSFs:             18080
 Number of doubly external CSFs:         120453480
 Total number of CSFs:                   120471560

 Molecular orbitals read from record     2100.2  Type=RHF/CANONICAL (state 1.1)

 Integral transformation finished. Total CPU: 574.31 sec, npass=  1  Memory used:1239.30 MW

 Geminal basis:    OPTFULL  GEM_TYPE=SLATER  BETA=1.0  NGEM=6

 Optimizing Gaussian exponents for each gem_beta

 Geminal optimization for beta= 1.0000
 Weight function:   m=0, omega= 1.4646

 Augmented Hessian optimization of geminal fit. Trust ratio= 0.40000
 Convergence reached after   2 iterations. Final gradient= 8.53D-16, Step= 4.26D-06, Delta= 1.28D-09

 Alpha:                 0.19532     0.81920     2.85917     9.50073    35.69989   197.79328
 Coeff:                 0.27070     0.30552     0.18297     0.10986     0.06810     0.04224


 WFN_F12=FIX,EG    DECOUPLE_EXPL=F   HYBRID=0    NOX=F   SEMIINT_F12=T   CORE_SINGLES=F

 AO(A)-basis ORBITAL           loaded. Number of functions:     479
 RI(R)-basis CC-PVTZ-F12/OPTRI loaded. Number of functions:     771
 DF-basis AUG-CC-PVTZ/JKFIT    loaded. Number of functions:    1004

 Screening thresholds:   THRAO=  1.00D-10  THRMO=  1.00D-09  THRPROD=  1.00D-09
                         THRSW=  1.00D-05  THROV=  1.00D-12  THRAOF12= 1.00D-08

 CPU time for one-electron matrices              31.52 sec

 Construction of ABS:
 Pseudo-inverse stability          1.55E-11
 Smallest eigenvalue of S          7.54E-05  (threshold= 1.00E-08)
 Ratio eigmin/eigmax               7.59E-06  (threshold= 1.00E-09)
 Smallest eigenvalue of S kept     7.54E-05  (threshold= 7.54E-05, 0 functions deleted, 771 kept)

 Construction of CABS:
 Pseudo-inverse stability          7.23E-10
 Smallest eigenvalue of S          2.16E-07  (threshold= 1.00E-08)
 Ratio eigmin/eigmax               2.16E-07  (threshold= 1.00E-09)
 Smallest eigenvalue of S kept     2.16E-07  (threshold= 2.16E-07, 0 functions deleted, 771 kept)

 CPU time for basis constructions                 0.34 sec
 Fock operators(MO) rebuilt from dump record.
 CPU time for fock operators                      0.74 sec

                                      TOTAL          ALPHA          BETA    
  Singles Contributions MO        -0.000000001   -0.000000001   -0.000000001
  Singles Contributions CABS      -0.002715806   -0.001357903   -0.001357903
  Pure DF-RHF relaxation          -0.002715806

 CPU time for singles                             2.01 sec

 AO(A)-basis ORBITAL           loaded. Number of functions:     479
 RI(R)-basis CC-PVTZ-F12/OPTRI loaded. Number of functions:     771
 DF-basis AUG-CC-PVTZ/MP2FIT   loaded. Number of functions:    1018

 Screening thresholds:   THRAO=  1.00D-10  THRMO=  1.00D-09  THRPROD=  1.00D-09
                         THRSW=  1.00D-05  THROV=  1.00D-12  THRAOF12= 1.00D-08


 Memory required in f12_kf_ix1:                 227.24 MW

 CPU time for fitting coeffients                  6.25 sec
 CPU time for integrals and contraction (tot)   540.39 sec
 CPU time for transformation and storage          0.29 sec
 CPU time for 3-ext contributions (total)       546.93 sec

 Memory required in f12_kf_ix1:                 227.24 MW

 CPU time for fitting coeffients                  6.12 sec
 CPU time for integrals and contraction (tot)   546.31 sec
 CPU time for transformation and storage          0.26 sec
 CPU time for 3-ext contributions (total)       552.69 sec
 CPU time for transformed integrals            1408.86 sec
 CPU time for F12 matrices                       49.47 sec

 Diagonal F12 ansatz with fixed amplitudes:   TS= 0.5000  TT= 0.2500  TN= 0.3750

 ITER.     SQ.NORM      CORR.ENERGY   TOTAL ENERGY  ENERGY CHANGE      VAR         CPU   MICRO    DIIS
   1      1.48351187    -1.63311489  -380.64869339    -1.6358E+00   4.84E-01      2.59  1  1  1   0  0
   2      1.48351187    -1.63311489  -380.64869339     1.7097E-14   3.58E-25     17.86  0  0  0   0  0

 - - Continuing with F12/conv. amplitude coupling turned on.

   3      1.48354817    -1.63374767  -380.64932618    -6.3279E-04   1.20E-04     34.56  1  1  1   1  1
   4      1.48354817    -1.63374767  -380.64932618     2.8866E-15   5.42E-26     50.40  1  1  1   0  1

 CPU time for iterative RMP2-F12                 50.40 sec


 DF-RMP2-F12 doubles corrections:
 - - - - - - - - - - - - - - - - 
  Approx.                             TOTAL           A-B            A-A            B-B    
  RMP2-F12/3C(FIX)                -0.118923393   -0.109908228   -0.004507583   -0.004507583
  RMP2-F12/3*C(FIX)               -0.118290608   -0.109627800   -0.004331404   -0.004331404
  RMP2-F12/3*C(DX)                -0.118671463   -0.109975606   -0.004347928   -0.004347928
  RMP2-F12/3*C(FIX,DX)            -0.124902926   -0.115781701   -0.004560612   -0.004560612

 DF-RMP2-F12 doubles energies:
 - - - - - - - - - - - - - - -
  Approx.                             TOTAL           A-B            A-A            B-B    
  RMP2                            -1.514824278   -1.128448936   -0.193187671   -0.193187671
  RMP2-F12/3C(FIX)                -1.633747671   -1.238357164   -0.197695254   -0.197695254
  RMP2-F12/3*C(FIX)               -1.633114885   -1.238076736   -0.197519075   -0.197519075
  RMP2-F12/3*C(DX)                -1.633495741   -1.238424542   -0.197535599   -0.197535599
  RMP2-F12/3*C(FIX,DX)            -1.639727203   -1.244230638   -0.197748283   -0.197748283


  Reference energy                   -379.012862698381
  CABS relaxation correction to RHF    -0.002715806314
  New reference energy               -379.015578504695

  RMP2-F12 singles (MO) energy         -0.000000001471
  RMP2-F12 pair energy                 -1.633747671047
  RMP2-F12 correlation energy          -1.633747672518

 !RMP2-F12/3C(FIX) energy            -380.649326177213

 Starting RMP2 calculation, locsing= 0

 ITER.      SQ.NORM     CORR.ENERGY   TOTAL ENERGY   ENERGY CHANGE        DEN1      VAR(S)    VAR(P)  DIIS     TIME
   1      1.47629431    -1.50802085  -380.52088355    -1.50802085    -0.00627486  0.76D-10  0.29D-02  1  1  2202.24
   2      1.48325904    -1.51480593  -380.52766863    -0.00678508    -0.00001106  0.26D-11  0.71D-05  2  2  2221.52
   3      1.48351245    -1.51494310  -380.52780580    -0.00013718    -0.00000003  0.85D-13  0.24D-07  3  3  2240.89
   4      1.48351761    -1.51494411  -380.52780680    -0.00000100    -0.00000000  0.24D-14  0.86D-10  4  4  2260.45
   5      1.48351768    -1.51494412  -380.52780682    -0.00000001    -0.00000000  0.63D-16  0.28D-12  5  5  2280.60

 Norm of t1 vector:      0.00004977      S-energy:    -0.00000000      T1 diagnostic:  0.00000556
 Norm of t2 vector:      0.69535435      P-energy:    -1.51494412
                                         Alpha-Beta:  -1.12891006
                                         Alpha-Alpha: -0.19301703
                                         Beta-Beta:   -0.19301703

 Spin contamination <S**2-Sz**2-Sz>     0.00000000
  Reference energy                   -379.012862698381
  CABS singles correction              -0.002715806314
  New reference energy               -379.015578504695
  RHF-RMP2 correlation energy          -1.514944118847
 !RHF-RMP2 energy                    -380.530522623542

  F12/3C(FIX) correction               -0.118923393206
  RHF-RMP2-F12 correlation energy      -1.633867512053
 !RHF-RMP2-F12 total energy          -380.649446016748

 Starting UCCSD calculation

 ITER.      SQ.NORM     CORR.ENERGY   TOTAL ENERGY   ENERGY CHANGE        DEN1      VAR(S)    VAR(P)  DIIS     TIME
   1      1.44190107    -1.43343753  -380.44630023    -1.43343753    -0.05234955  0.16D-01  0.10D-01  0  0  5006.53
   2      1.49327062    -1.47853576  -380.49139846    -0.04509823    -0.00678493  0.68D-03  0.28D-02  1  1  7683.83
   3      1.51666782    -1.48277610  -380.49563880    -0.00424034    -0.00194492  0.15D-02  0.40D-03  2  2 10386.78
   4      1.54208419    -1.49156511  -380.50442780    -0.00878901    -0.00038854  0.27D-03  0.10D-03  3  3 13039.88
   5      1.55563729    -1.49365427  -380.50651697    -0.00208917    -0.00015441  0.17D-03  0.25D-04  4  4 15664.50
   6      1.56524411    -1.49423958  -380.50710228    -0.00058531    -0.00005093  0.49D-04  0.11D-04  5  5 18377.91
   7      1.57291793    -1.49474554  -380.50760824    -0.00050596    -0.00001651  0.14D-04  0.41D-05  6  6 21059.55
   8      1.57652079    -1.49485984  -380.50772254    -0.00011430    -0.00000458  0.40D-05  0.11D-05  6  2 23802.36
   9      1.57838035    -1.49497201  -380.50783471    -0.00011217    -0.00000151  0.12D-05  0.36D-06  6  1 26606.21
  10      1.57904141    -1.49500994  -380.50787264    -0.00003793    -0.00000057  0.55D-06  0.11D-06  6  3 29242.13
  11      1.57925391    -1.49500493  -380.50786763     0.00000500    -0.00000026  0.25D-06  0.54D-07  6  4 31769.04
  12      1.57950830    -1.49501657  -380.50787927    -0.00001163    -0.00000011  0.11D-06  0.22D-07  6  5 34316.94
  13      1.57949382    -1.49500660  -380.50786930     0.00000997    -0.00000005  0.43D-07  0.11D-07  6  6 36700.02
  14      1.57959031    -1.49501185  -380.50787455    -0.00000525    -0.00000002  0.20D-07  0.43D-08  6  2 39076.04
  15      1.57956855    -1.49500983  -380.50787253     0.00000202    -0.00000001  0.64D-08  0.17D-08  6  1 41455.85
  16      1.57957532    -1.49500876  -380.50787145     0.00000108    -0.00000000  0.36D-08  0.62D-09  6  5 43829.86
  17      1.57956595    -1.49500838  -380.50787107     0.00000038    -0.00000000  0.12D-08  0.25D-09  6  3 46204.88

 Norm of t1 vector:      0.26224228      S-energy:    -0.00000032      T1 diagnostic:  0.02931958
                                                                       D1 diagnostic:  0.12202006
 Norm of t2 vector:      0.71469919      P-energy:    -1.49500805
                                         Alpha-Beta:  -1.16185999
                                         Alpha-Alpha: -0.16657403
                                         Beta-Beta:   -0.16657403

 Singles amplitudes (print threshold =  0.500E-01):

         I         SYM. A    A   T(IA) [Alpha-Alpha]

        20         1         1      0.06679612

         I         SYM. A    A   T(IA) [Beta-Beta]

        20         1         1      0.06679612

 Spin contamination <S**2-Sz**2-Sz>     0.00000000

 Memory could be reduced to 3015.59 Mwords without degradation in triples


  Ecorr(MP2)                           -1.514944118847
  Ecorr(MP2-F12)                       -1.633867512053
  Scale factor for triples energy       1.078500184744

 RESULTS
 =======

  Reference energy                   -379.012862698381
  CABS relaxation correction to RHF    -0.002715806314
  New reference energy               -379.015578504695

  F12 corrections for ansatz 3C(FIX) added to UCCSD energy. Coupling mode: 15

  UCCSD-F12a singles energy            -0.000000322804
  UCCSD-F12a pair energy               -1.612232113816
  UCCSD-F12a correlation energy        -1.612232436621
  Triples (T) contribution (scaled)    -0.096398195423
  Total correlation energy             -1.708630632044

  RHF-UCCSD-F12a energy              -380.627810941315
  RHF-UCCSD[T]-F12a energy           -380.731893479882
  RHF-UCCSD-T-F12a energy            -380.721996871253
 !RHF-UCCSD(T)-F12a energy           -380.724209136738

  F12 corrections for ansatz 3C(FIX) added to UCCSD energy. Coupling mode: 15

  UCCSD-F12b singles energy            -0.000000322804
  UCCSD-F12b pair energy               -1.590557314001
  UCCSD-F12b correlation energy        -1.590557636805
  Triples (T) contribution (scaled)    -0.096398195423
  Total correlation energy             -1.686955832228

  RHF-UCCSD-F12b energy              -380.606136141500
  RHF-UCCSD[T]-F12b energy           -380.710218680066
  RHF-UCCSD-T-F12b energy            -380.700322071437
 !RHF-UCCSD(T)-F12b energy           -380.702534336923

 Program statistics:

 Available memory in ccsd:              4095996573
 Min. memory needed in ccsd:             330738929
 Max. memory used in ccsd:               485525309
 Max. memory used in cckext:             365274343 (18 integral passes)
 Max. memory used in cckint:            1239296590 ( 1 integral passes)



 **********************************************************************************************************************************
 DATASETS  * FILE   NREC   LENGTH (MB)   RECORD NAMES
              1      20    22753.93       500      610      700      900      950      970     1000      129      960     1100   
                                          VAR    BASINP    GEOM    SYMINP    ZMAT    AOBASIS   BASIS     P2S    ABASIS      S 
                                         1400     1410     1200     1210     1080     1600     1650     1300     1700      960(1)
                                           T        V       H0       H01     AOSYM     SMH    MOLCAS    ERIS     OPER    ABASIS    

              2       5       12.23       700     1000      520     2100     7360   
                                         GEOM     BASIS   MCVARS     RHF    F12ABS    

 PROGRAMS   *        TOTAL  UCCSD(T)    HF-SCF       INT
 CPU TIMES  *    125458.52 124007.85   1086.25    364.35
 REAL TIME  *    130479.21 SEC
 DISK USED  *       135.85 GB
 **********************************************************************************************************************************

 UCCSD(T)-F12C/cc-pVTZ-F12 energy=   -380.702534336923

   UCCSD(T)-F12C          HF-SCF
   -380.70253434   -379.01286270
 **********************************************************************************************************************************
 Molpro calculation terminated
