
 Primary working directories    : /var/tmp/pbs.367886.bp1/molpro.3H2HLOJoQT
 Secondary working directories  : /var/tmp/pbs.367886.bp1/molpro.3H2HLOJoQT
 Wavefunction directory         : /home/lb17101/molpro_test/inp/
 Main file repository           : /home/lb17101/molpro_test/inp/

 id        : uob

 Nodes                         nprocs
 bp1-01-03-01.data.bp.acrc.priv    1

 Using customized tuning parameters: mindgm=1; mindgv=20; mindgc=4; mindgr=1; noblas=0; minvec=7
 default implementation of scratch files=df  


 Variables initialized (934), CPU time= 0.00 sec
 geomtyp=xyz
 nosym
 noorient
 geometry={
  O      -0.569356242485      -1.748572643149       1.737085666936
  C       0.178818435219      -1.015762878364       0.949776982317
  C      -0.629408444014      -0.623300480967      -0.306963551361
  C      -0.408729771521       0.767747716824      -0.950699627876
  C      -0.723431928250       1.491446419359      -1.865172044092
  C       1.140146872876       0.155135093506       1.020761333596
  C       1.072635271827       1.255330257013      -0.229381330626
  H      -0.298590026327      -2.262723213259       2.719805701992
  H       1.681819710860      -1.387576444948       1.250481995273
  H      -1.395106787473      -0.818342777001       0.185899048949
  H       0.003152818919      -1.177419568376      -1.021762268618
  H      -1.675581866827       3.148248954193      -1.243005229722
  H       2.631508079484       1.482886151400      -0.883366282307
 }
 basis=vtz-f12
 hf
 uccsd(t)-f12c,cabs_singles=1,scale_trip=1
 Commands  initialized (763), CPU time= 0.01 sec, 617 directives.
 Default parameters read. Elapsed time= 0.05 sec

 Checking input...
 Passed
1


                                         ***  PROGRAM SYSTEM MOLPRO  ***
                                       Copyright, TTI GmbH Stuttgart, 2015
                                    Version 2019.2 linked Oct 25 2019 22:50:27


 **********************************************************************************************************************************
 LABEL *                                                                                 
  64 bit serial version                                                                  DATE: 22-Sep-20          TIME: 19:37:42  
 **********************************************************************************************************************************

 SHA1:             8dbd9ae1082e4ce945b0f27595c9eb2d4aa09004
 **********************************************************************************************************************************
 SETTING GEOMTYP        =    XYZ

 Variable memory set to 4096000000 words,  buffer space 

 ZSYMEL=NOSYM

 SETTING BASIS          =    VTZ-F12


 Recomputing integrals since basis changed


 Using spherical harmonics

 Library entry O      S cc-pVTZ-F12          selected for orbital group  1
 Library entry O      P cc-pVTZ-F12          selected for orbital group  1
 Library entry O      D cc-pVTZ-F12          selected for orbital group  1
 Library entry O      F cc-pVTZ-F12          selected for orbital group  1
 Library entry C      S cc-pVTZ-F12          selected for orbital group  2
 Library entry C      P cc-pVTZ-F12          selected for orbital group  2
 Library entry C      D cc-pVTZ-F12          selected for orbital group  2
 Library entry C      F cc-pVTZ-F12          selected for orbital group  2
 Library entry H      S cc-pVTZ-F12          selected for orbital group  3
 Library entry H      P cc-pVTZ-F12          selected for orbital group  3
 Library entry H      D cc-pVTZ-F12          selected for orbital group  3


 PROGRAM * SEWARD (Integral evaluation for generally contracted gaussian basis sets)     Author: Roland Lindh, 1990

 Geometry written to block  1 of record 700


 Point group  C1  



 ATOMIC COORDINATES

 NR  ATOM    CHARGE       X              Y              Z

   1  O       8.00   -1.075927366   -3.304323404    3.282616165
   2  C       6.00    0.337917869   -1.919513648    1.794818376
   3  C       6.00   -1.189409580   -1.177867202   -0.580077042
   4  C       6.00   -0.772387327    1.450832918   -1.796561923
   5  C       6.00   -1.367088214    2.818425262   -3.524664339
   6  C       6.00    2.154565332    0.293162839    1.928959359
   7  C       6.00    2.026986895    2.372230382   -0.433467893
   8  H       1.00   -0.564253373   -4.275927169    5.139687889
   9  H       1.00    3.178178644   -2.622139458    2.363068495
  10  H       1.00   -2.636369743   -1.546443725    0.351298289
  11  H       1.00    0.005957964   -2.225000518   -1.930850852
  12  H       1.00   -3.166390828    5.949328295   -2.348939456
  13  H       1.00    4.972829565    2.802248700   -1.669320341

 Bond lengths in Bohr (Angstrom)

 1-2  2.475923802  1-8  2.157438188  2-3  2.919400081  2-6  2.866031933  3-4  2.926398357
     ( 1.310202452)     ( 1.141667123)     ( 1.544879992)     ( 1.516638785)     ( 1.548583321)

  3-10  1.759830212   3-11  2.085660958   4- 5  2.282611645   4- 7  3.247074785   6- 7  3.149581024
       ( 0.931262043)       ( 1.103684249)       ( 1.207906064)       ( 1.718277978)       ( 1.666686502)

 Bond angles

  1-2-3  109.40056831   1-2-6  139.96370606   2-1-8  129.32363958   2-3-4  119.45936295

  2- 3-10   86.92845054   2- 3-11   95.70832433   2- 6- 7  116.66965104   3- 2- 6   99.99466046

  3- 4- 5  144.66344162   3- 4- 7  101.72686895   4- 3-10  121.68869663   4- 3-11   95.74446534

  4- 7- 6   99.35105491   5- 4- 7  111.86455737  10- 3-11  135.14160936

 NUCLEAR CHARGE:                   50
 NUMBER OF PRIMITIVE AOS:         630
 NUMBER OF SYMMETRY AOS:          561
 NUMBER OF CONTRACTIONS:          479   (  479A   )
 NUMBER OF CORE ORBITALS:           7   (    7A   )
 NUMBER OF VALENCE ORBITALS:       34   (   34A   )


 NUCLEAR REPULSION ENERGY  253.28926289


 Eigenvalues of metric

         1 0.173E-04 0.290E-04 0.473E-04 0.702E-04 0.826E-04 0.836E-04 0.894E-04 0.102E-03


 Contracted 2-electron integrals neglected if value below      1.0D-12
 AO integral compression algorithm  1   Integral accuracy      1.0D-12

     24684.790 MB (compressed) written to integral file ( 43.3%)


 NUMBER OF SORTED TWO-ELECTRON INTEGRALS: 6607958280.     BUFFER LENGTH:  32768
 NUMBER OF SEGMENTS: 138  SEGMENT LENGTH:   47999545      RECORD LENGTH: 262144

 Memory used in sort:      48.29 MW

 SORT1 READ  7126018325. AND WROTE  5661880577. INTEGRALS IN  32468 RECORDS. CPU TIME:    95.31 SEC, REAL TIME:  2907.18 SEC
 SORT2 READ  5661880577. AND WROTE  6607958280. INTEGRALS IN  94165 RECORDS. CPU TIME:    91.98 SEC, REAL TIME:  8096.23 SEC

 FILE SIZES:   FILE 1: 24723.4 MBYTE,  FILE 4: 68090.4 MBYTE,   TOTAL:  92813.7 MBYTE

 OPERATOR DM      FOR CENTER  0  COORDINATES:    0.000000    0.000000    0.000000


 **********************************************************************************************************************************
 DATASETS  * FILE   NREC   LENGTH (MB)   RECORD NAMES
              1      19    22880.77       500      610      700      900      950      970     1000      129      960     1100   
                                          VAR    BASINP    GEOM    SYMINP    ZMAT    AOBASIS   BASIS     P2S    ABASIS      S 
                                         1400     1410     1200     1210     1080     1600     1650     1300     1700   
                                           T        V       H0       H01     AOSYM     SMH    MOLCAS    ERIS     OPER   

 PROGRAMS   *        TOTAL       INT
 CPU TIMES  *       422.50    422.41
 REAL TIME  *     11266.32 SEC
 DISK USED  *        92.81 GB
 **********************************************************************************************************************************


 PROGRAM * RHF-SCF (CLOSED SHELL)       Authors: W. Meyer, H.-J. Werner


 NUMBER OF ELECTRONS:      25+   25-    SPACE SYMMETRY=1    SPIN SYMMETRY: Singlet 
 CONVERGENCE THRESHOLDS:    1.00E-05 (Density)    1.00E-07 (Energy)
 MAX. NUMBER OF ITERATIONS:       60
 INTERPOLATION TYPE:            DIIS
 INTERPOLATION STEPS:              2 (START)      1 (STEP)
 LEVEL SHIFTS:                  0.00 (CLOSED)  0.00 (OPEN) 



 Orbital guess generated from atomic densities. Full valence occupancy:   41

 Molecular orbital dump at record        2100.2

 Initial occupancy:  25

 ITERATION    DDIFF          GRAD             ENERGY        2-EL.EN.            DIPOLE MOMENTS         DIIS   ORB.
    1      0.000D+00      0.000D+00      -304.65695950    717.466402   -0.22361   -1.70614    1.95734    0    start
    2      0.000D+00      0.289D-02      -304.76251152    710.352845   -1.32794   -0.56109   -0.09048    1    diag
    3      0.463D-02      0.199D-02      -304.81350844    713.040397   -0.67412   -1.29207    1.03551    2    diag
    4      0.205D-02      0.564D-03      -304.82398183    713.088272   -0.80548   -1.22372    0.61318    3    diag
    5      0.928D-03      0.342D-03      -304.82775923    712.725996   -0.76927   -1.28770    0.73816    4    diag
    6      0.475D-03      0.145D-03      -304.82955381    712.727036   -0.76681   -1.33845    0.69531    5    diag
    7      0.454D-03      0.760D-04      -304.83000729    712.703202   -0.73458   -1.35307    0.71249    6    diag
    8      0.237D-03      0.420D-04      -304.83014353    712.706852   -0.73743   -1.36768    0.70128    7    diag
    9      0.127D-03      0.240D-04      -304.83019462    712.686349   -0.72471   -1.37058    0.70283    8    diag
   10      0.910D-04      0.135D-04      -304.83021459    712.701309   -0.72064   -1.37403    0.69967    9    orth
   11      0.634D-04      0.693D-05      -304.83022032    712.691393   -0.71801   -1.37582    0.69877    9    diag
   12      0.389D-04      0.368D-05      -304.83022187    712.694770   -0.71709   -1.37678    0.69738    9    diag
   13      0.207D-04      0.188D-05      -304.83022220    712.694728   -0.71660   -1.37763    0.69742    9    diag
   14      0.886D-05      0.891D-06      -304.83022226    712.694181   -0.71702   -1.37754    0.69705    9    diag
   15      0.274D-05      0.604D-06      -304.83022228    712.694503   -0.71700   -1.37756    0.69734    0    orth

 Final occupancy:  25

 !RHF STATE  1.1 Energy              -304.830222279061
 Nuclear energy                       253.28926289
 One-electron energy                 -914.46673685
 Two-electron energy                  356.34725168
 Virial quotient                       -1.00357822
 !RHF STATE  1.1 Dipole moment         -0.71700272    -1.37756285     0.69733841
 Dipole moment /Debye                  -1.82231977    -3.50118619     1.77234136

 Orbital energies:

         1.1          2.1          3.1          4.1          5.1          6.1          7.1          8.1          9.1         10.1
    -20.644336   -11.373409   -11.335848   -11.304869   -11.295755   -11.283331   -11.278773    -1.442344    -1.153615    -1.066121

        11.1         12.1         13.1         14.1         15.1         16.1         17.1         18.1         19.1         20.1
     -0.950064    -0.867302    -0.781316    -0.726766    -0.673201    -0.633055    -0.594665    -0.594213    -0.512250    -0.481479

        21.1         22.1         23.1         24.1         25.1         26.1         27.1
     -0.455629    -0.444709    -0.385091    -0.324720    -0.283254    -0.043899     0.021285


 HOMO     25.1    -0.283254 =      -7.7077eV
 LUMO     26.1    -0.043899 =      -1.1946eV
 LUMO-HOMO         0.239355 =       6.5132eV


 **********************************************************************************************************************************
 DATASETS  * FILE   NREC   LENGTH (MB)   RECORD NAMES
              1      19    22880.77       500      610      700      900      950      970     1000      129      960     1100   
                                          VAR    BASINP    GEOM    SYMINP    ZMAT    AOBASIS   BASIS     P2S    ABASIS      S 
                                         1400     1410     1200     1210     1080     1600     1650     1300     1700   
                                           T        V       H0       H01     AOSYM     SMH    MOLCAS    ERIS     OPER   

              2       4        7.63       700     1000      520     2100   
                                         GEOM     BASIS   MCVARS     RHF  

 PROGRAMS   *        TOTAL    HF-SCF       INT
 CPU TIMES  *      1423.60   1001.10    422.41
 REAL TIME  *     14532.70 SEC
 DISK USED  *        92.81 GB
 **********************************************************************************************************************************


 PROGRAM * CCSD (Unrestricted open-shell coupled cluster)     Authors: C. Hampel, H.-J. Werner, 1991, M. Deegan, P.J. Knowles, 1992

                           UCCSD-F12 implementation by G. Knizia and H.-J. Werner, 2008

                   Density fitting integral evaluation by F.R. Manby, 2003,2007, G. Knizia, 2010


 Basis set AUG-CC-PVTZ/JKFIT generated.  Number of basis functions:   1004 
 Basis set CC-PVTZ-F12/OPTRI generated.  Number of basis functions:   771 
 Basis set AUG-CC-PVTZ/MP2FIT generated. Number of basis functions:   1018 

 Convergence thresholds:  THRVAR = 1.00D-08  THRDEN = 1.00D-06

 CCSD(T)     terms to be evaluated (factor= 1.000)


 Number of core orbitals:           7 (   7 )
 Number of closed-shell orbitals:  18 (  18 )
 Number of external orbitals:     454 ( 454 )

 Memory could be reduced to 2618.93 Mwords without degradation in triples

 Number of N-1 electron functions:              36
 Number of N-2 electron functions:             630
 Number of singly external CSFs:             16344
 Number of doubly external CSFs:          98247870
 Total number of CSFs:                    98264214

 Molecular orbitals read from record     2100.2  Type=RHF/CANONICAL (state 1.1)

 Integral transformation finished. Total CPU: 492.04 sec, npass=  1  Memory used:1115.04 MW

 Geminal basis:    OPTFULL  GEM_TYPE=SLATER  BETA=1.0  NGEM=6

 Optimizing Gaussian exponents for each gem_beta

 Geminal optimization for beta= 1.0000
 Weight function:   m=0, omega= 1.4646

 Augmented Hessian optimization of geminal fit. Trust ratio= 0.40000
 Convergence reached after   2 iterations. Final gradient= 8.53D-16, Step= 4.26D-06, Delta= 1.28D-09

 Alpha:                 0.19532     0.81920     2.85917     9.50073    35.69989   197.79328
 Coeff:                 0.27070     0.30552     0.18297     0.10986     0.06810     0.04224


 WFN_F12=FIX,EG    DECOUPLE_EXPL=F   HYBRID=0    NOX=F   SEMIINT_F12=T   CORE_SINGLES=F

 AO(A)-basis ORBITAL           loaded. Number of functions:     479
 RI(R)-basis CC-PVTZ-F12/OPTRI loaded. Number of functions:     771
 DF-basis AUG-CC-PVTZ/JKFIT    loaded. Number of functions:    1004

 Screening thresholds:   THRAO=  1.00D-10  THRMO=  1.00D-09  THRPROD=  1.00D-09
                         THRSW=  1.00D-05  THROV=  1.00D-12  THRAOF12= 1.00D-08

 CPU time for one-electron matrices              33.95 sec

 Construction of ABS:
 Pseudo-inverse stability          2.08E-11
 Smallest eigenvalue of S          5.81E-05  (threshold= 1.00E-08)
 Ratio eigmin/eigmax               5.53E-06  (threshold= 1.00E-09)
 Smallest eigenvalue of S kept     5.81E-05  (threshold= 5.81E-05, 0 functions deleted, 771 kept)

 Construction of CABS:
 Pseudo-inverse stability          7.99E-10
 Smallest eigenvalue of S          1.37E-07  (threshold= 1.00E-08)
 Ratio eigmin/eigmax               1.37E-07  (threshold= 1.00E-09)
 Smallest eigenvalue of S kept     1.37E-07  (threshold= 1.37E-07, 0 functions deleted, 771 kept)

 CPU time for basis constructions                 0.34 sec
 Fock operators(MO) rebuilt from dump record.
 CPU time for fock operators                      0.71 sec

                                      TOTAL          ALPHA          BETA    
  Singles Contributions MO        -0.000000007   -0.000000004   -0.000000004
  Singles Contributions CABS      -0.002329565   -0.001164783   -0.001164783
  Pure DF-RHF relaxation          -0.002329565

 CPU time for singles                             1.72 sec

 AO(A)-basis ORBITAL           loaded. Number of functions:     479
 RI(R)-basis CC-PVTZ-F12/OPTRI loaded. Number of functions:     771
 DF-basis AUG-CC-PVTZ/MP2FIT   loaded. Number of functions:    1018

 Screening thresholds:   THRAO=  1.00D-10  THRMO=  1.00D-09  THRPROD=  1.00D-09
                         THRSW=  1.00D-05  THROV=  1.00D-12  THRAOF12= 1.00D-08


 Memory required in f12_kf_ix1:                 188.61 MW

 CPU time for fitting coeffients                  5.68 sec
 CPU time for integrals and contraction (tot)   367.05 sec
 CPU time for transformation and storage          0.20 sec
 CPU time for 3-ext contributions (total)       372.93 sec

 Memory required in f12_kf_ix1:                 188.61 MW

 CPU time for fitting coeffients                  5.49 sec
 CPU time for integrals and contraction (tot)   359.53 sec
 CPU time for transformation and storage          0.16 sec
 CPU time for 3-ext contributions (total)       365.18 sec
 CPU time for transformed integrals             997.87 sec
 CPU time for F12 matrices                       31.62 sec

 Diagonal F12 ansatz with fixed amplitudes:   TS= 0.5000  TT= 0.2500  TN= 0.3750

 ITER.     SQ.NORM      CORR.ENERGY   TOTAL ENERGY  ENERGY CHANGE      VAR         CPU   MICRO    DIIS
   1      1.52120239    -1.39844173  -306.23099357    -1.4008E+00   5.21E-01      1.69  1  1  1   0  0
   2      1.52120239    -1.39844173  -306.23099357     3.1086E-14   9.41E-25     11.69  0  0  0   0  0

 - - Continuing with F12/conv. amplitude coupling turned on.

   3      1.52125657    -1.39923447  -306.23178631    -7.9274E-04   1.03E-04     23.07  1  1  1   1  1
   4      1.52125657    -1.39923447  -306.23178631    -2.2204E-16   1.12E-25     33.77  1  1  1   0  1

 CPU time for iterative RMP2-F12                 33.77 sec


 DF-RMP2-F12 doubles corrections:
 - - - - - - - - - - - - - - - - 
  Approx.                             TOTAL           A-B            A-A            B-B    
  RMP2-F12/3C(FIX)                -0.092695909   -0.086290820   -0.003202545   -0.003202545
  RMP2-F12/3*C(FIX)               -0.091903173   -0.085762557   -0.003070308   -0.003070308
  RMP2-F12/3*C(DX)                -0.092072425   -0.085911912   -0.003080257   -0.003080257
  RMP2-F12/3*C(FIX,DX)            -0.094400944   -0.088202279   -0.003099332   -0.003099332

 DF-RMP2-F12 doubles energies:
 - - - - - - - - - - - - - - -
  Approx.                             TOTAL           A-B            A-A            B-B    
  RMP2                            -1.306538549   -0.980860625   -0.162838962   -0.162838962
  RMP2-F12/3C(FIX)                -1.399234459   -1.067151444   -0.166041507   -0.166041507
  RMP2-F12/3*C(FIX)               -1.398441723   -1.066623182   -0.165909270   -0.165909270
  RMP2-F12/3*C(DX)                -1.398610975   -1.066772536   -0.165919219   -0.165919219
  RMP2-F12/3*C(FIX,DX)            -1.400939493   -1.069062904   -0.165938295   -0.165938295


  Reference energy                   -304.830222279061
  CABS relaxation correction to RHF    -0.002329565287
  New reference energy               -304.832551844348

  RMP2-F12 singles (MO) energy         -0.000000007047
  RMP2-F12 pair energy                 -1.399234458622
  RMP2-F12 correlation energy          -1.399234465669

 !RMP2-F12/3C(FIX) energy            -306.231786310017

 Starting RMP2 calculation, locsing= 0

 ITER.      SQ.NORM     CORR.ENERGY   TOTAL ENERGY   ENERGY CHANGE        DEN1      VAR(S)    VAR(P)  DIIS     TIME
   1      1.50687295    -1.29736798  -306.12759026    -1.29736798    -0.00810575  0.69D-09  0.51D-02  1  1  1713.46
   2      1.52000758    -1.30630158  -306.13652386    -0.00893360    -0.00004840  0.39D-10  0.54D-04  2  2  1726.03
   3      1.52113789    -1.30667533  -306.13689761    -0.00037375    -0.00000059  0.15D-11  0.79D-06  3  3  1739.24
   4      1.52121369    -1.30668678  -306.13690906    -0.00001145    -0.00000000  0.39D-13  0.55D-08  4  4  1752.82
   5      1.52121601    -1.30668706  -306.13690934    -0.00000028    -0.00000000  0.16D-14  0.27D-10  5  5  1766.74

 Norm of t1 vector:      0.00012955      S-energy:    -0.00000001      T1 diagnostic:  0.00001527
 Norm of t2 vector:      0.72195290      P-energy:    -1.30668705
                                         Alpha-Beta:  -0.98133603
                                         Alpha-Alpha: -0.16267551
                                         Beta-Beta:   -0.16267551

 Spin contamination <S**2-Sz**2-Sz>     0.00000000
  Reference energy                   -304.830222279062
  CABS singles correction              -0.002329565287
  New reference energy               -304.832551844349
  RHF-RMP2 correlation energy          -1.306687058005
 !RHF-RMP2 energy                    -306.139238902354

  F12/3C(FIX) correction               -0.092695909128
  RHF-RMP2-F12 correlation energy      -1.399382967132
 !RHF-RMP2-F12 total energy          -306.231934811481

 Starting UCCSD calculation

 ITER.      SQ.NORM     CORR.ENERGY   TOTAL ENERGY   ENERGY CHANGE        DEN1      VAR(S)    VAR(P)  DIIS     TIME
   1      1.48277613    -1.24411469  -306.07433697    -1.24411469    -0.04840745  0.15D-01  0.14D-01  1  1  3918.75
   2      1.55165662    -1.28620502  -306.11642730    -0.04209033    -0.00788362  0.12D-02  0.44D-02  2  2  6081.74
   3      1.60362101    -1.29855068  -306.12877295    -0.01234565    -0.00181977  0.13D-02  0.74D-03  3  3  8199.33
   4      1.64141533    -1.30583338  -306.13605566    -0.00728271    -0.00054416  0.34D-03  0.24D-03  4  4 10329.01
   5      1.66919811    -1.30874087  -306.13896315    -0.00290749    -0.00019177  0.20D-03  0.56D-04  5  5 12479.55
   6      1.68619987    -1.30976814  -306.13999042    -0.00102727    -0.00006767  0.62D-04  0.22D-04  6  6 14634.41
   7      1.69952902    -1.31044728  -306.14066956    -0.00067914    -0.00001993  0.18D-04  0.66D-05  6  1 16717.87
   8      1.70489598    -1.31065851  -306.14088079    -0.00021124    -0.00000589  0.53D-05  0.20D-05  6  2 18821.77
   9      1.70709363    -1.31068980  -306.14091208    -0.00003129    -0.00000203  0.19D-05  0.70D-06  6  3 20878.13
  10      1.70833423    -1.31075101  -306.14097329    -0.00006121    -0.00000083  0.88D-06  0.25D-06  6  4 22946.80
  11      1.70850455    -1.31073552  -306.14095780     0.00001549    -0.00000040  0.40D-06  0.13D-06  6  6 25042.20
  12      1.70896737    -1.31075120  -306.14097348    -0.00001568    -0.00000017  0.17D-06  0.59D-07  6  5 27132.75
  13      1.70904415    -1.31074992  -306.14097220     0.00000128    -0.00000007  0.76D-07  0.25D-07  6  1 29190.70
  14      1.70911779    -1.31074524  -306.14096752     0.00000468    -0.00000003  0.34D-07  0.14D-07  6  2 31246.75
  15      1.70905416    -1.31074010  -306.14096238     0.00000514    -0.00000001  0.13D-07  0.63D-08  6  6 33288.26
  16      1.70902375    -1.31073585  -306.14095813     0.00000425    -0.00000001  0.60D-08  0.22D-08  6  3 35316.44
  17      1.70899726    -1.31073418  -306.14095645     0.00000168    -0.00000000  0.23D-08  0.96D-09  6  4 37318.67
  18      1.70897964    -1.31073461  -306.14095689    -0.00000044    -0.00000000  0.13D-08  0.36D-09  6  3 39378.08

 Norm of t1 vector:      0.30279588      S-energy:     0.00000275      T1 diagnostic:  0.03568484
                                                                       D1 diagnostic:  0.14612997
 Norm of t2 vector:      0.78568079      P-energy:    -1.31073737
                                         Alpha-Beta:  -1.02715191
                                         Alpha-Alpha: -0.14179273
                                         Beta-Beta:   -0.14179273

 Singles amplitudes (print threshold =  0.500E-01):

         I         SYM. A    A   T(IA) [Alpha-Alpha]

        14         1         1     -0.06109845
        17         1         3     -0.08540520

         I         SYM. A    A   T(IA) [Beta-Beta]

        14         1         1     -0.06109845
        17         1         3     -0.08540520

 Doubles amplitudes (print threshold =  0.500E-01):

         I         J         SYM. A    SYM. B    A         B      T(IJ, AB) [Alpha-Beta]

        13        13         1         1         1         1     -0.05716016
        18        13         1         1         1         1      0.06380253
        13        18         1         1         1         1      0.06380253
        18        14         1         1         1         1      0.05753689
        14        18         1         1         1         1      0.05753689
        18        18         1         1         1         1     -0.17064735

 Spin contamination <S**2-Sz**2-Sz>     0.00000000

 Memory could be reduced to 2748.75 Mwords without degradation in triples


  Ecorr(MP2)                           -1.306687058005
  Ecorr(MP2-F12)                       -1.399382967132
  Scale factor for triples energy       1.070939639725

 RESULTS
 =======

  Reference energy                   -304.830222279062
  CABS relaxation correction to RHF    -0.002329565287
  New reference energy               -304.832551844349

  F12 corrections for ansatz 3C(FIX) added to UCCSD energy. Coupling mode: 15

  UCCSD-F12a singles energy             0.000002751852
  UCCSD-F12a pair energy               -1.401977422316
  UCCSD-F12a correlation energy        -1.401974670464
  Triples (T) contribution (scaled)    -0.105175528895
  Total correlation energy             -1.507150199358

  RHF-UCCSD-F12a energy              -306.234526514813
  RHF-UCCSD[T]-F12a energy           -306.346134101475
  RHF-UCCSD-T-F12a energy            -306.338361354624
 !RHF-UCCSD(T)-F12a energy           -306.339702043707

  F12 corrections for ansatz 3C(FIX) added to UCCSD energy. Coupling mode: 15

  UCCSD-F12b singles energy             0.000002751852
  UCCSD-F12b pair energy               -1.383860722917
  UCCSD-F12b correlation energy        -1.383857971065
  Triples (T) contribution (scaled)    -0.105175528895
  Total correlation energy             -1.489033499960

  RHF-UCCSD-F12b energy              -306.216409815414
  RHF-UCCSD[T]-F12b energy           -306.328017402077
  RHF-UCCSD-T-F12b energy            -306.320244655225
 !RHF-UCCSD(T)-F12b energy           -306.321585344309

 Program statistics:

 Available memory in ccsd:              4095997203
 Min. memory needed in ccsd:             270770615
 Max. memory used in ccsd:               396510101
 Max. memory used in cckext:             295596797 (19 integral passes)
 Max. memory used in cckint:            1115044469 ( 1 integral passes)



 **********************************************************************************************************************************
 DATASETS  * FILE   NREC   LENGTH (MB)   RECORD NAMES
              1      20    22880.77       500      610      700      900      950      970     1000      129      960     1100   
                                          VAR    BASINP    GEOM    SYMINP    ZMAT    AOBASIS   BASIS     P2S    ABASIS      S 
                                         1400     1410     1200     1210     1080     1600     1650     1300     1700      960(1)
                                           T        V       H0       H01     AOSYM     SMH    MOLCAS    ERIS     OPER    ABASIS    

              2       5       12.23       700     1000      520     2100     7360   
                                         GEOM     BASIS   MCVARS     RHF    F12ABS    

 PROGRAMS   *        TOTAL  UCCSD(T)    HF-SCF       INT
 CPU TIMES  *    102568.88 101145.28   1001.10    422.41
 REAL TIME  *    135854.71 SEC
 DISK USED  *       118.62 GB
 **********************************************************************************************************************************

 UCCSD(T)-F12C/cc-pVTZ-F12 energy=   -306.321585344309

   UCCSD(T)-F12C          HF-SCF
   -306.32158534   -304.83022228
 **********************************************************************************************************************************
 Molpro calculation terminated
