
 Primary working directories    : /var/tmp/pbs.368081.bp1/molpro.8eJZ59uw3J
 Secondary working directories  : /var/tmp/pbs.368081.bp1/molpro.8eJZ59uw3J
 Wavefunction directory         : /home/lb17101/molpro_test/inp/lowmem/
 Main file repository           : /home/lb17101/molpro_test/inp/lowmem/

 id        : uob

 Nodes                         nprocs
 bp1-01-05-02.data.bp.acrc.priv    1

 Using customized tuning parameters: mindgm=1; mindgv=20; mindgc=4; mindgr=1; noblas=0; minvec=7
 default implementation of scratch files=df  


 Variables initialized (934), CPU time= 0.01 sec
 geomtyp=xyz
 nosym
 noorient
 geometry={
  C      -0.817124855411       0.998242096877      -0.038005469421
  C      -0.742289382837      -0.086060754173       0.938653644988
  C      -0.060603669924      -1.077261243972      -0.095619822645
  C       0.013953029998       0.133711463341      -0.748832025017
  C       1.488781348196       0.059484089190      -0.009036812664
  H       0.004824529448       2.332791668128       0.036398485982
  H      -1.794724660781       1.470313844631      -0.144207304721
  H      -1.341902870124      -0.718262014807       1.976798147010
  H      -1.325094497402      -0.900611336356      -0.361968635468
  H       1.641315808890      -1.371737862009      -0.428197711288
  H      -0.047153237189       0.827566270426      -1.895202472652
  H       1.785329431971       0.012842878670       0.694300109470
  H       1.413259695302      -0.560187468823      -1.089388984879
 }
 basis=avqz
 local,thrbp=0.99
 df-hf
 df-luccsd
 Commands  initialized (763), CPU time= 0.01 sec, 617 directives.
 Default parameters read. Elapsed time= 0.10 sec

 Checking input...
 Passed
1


                                         ***  PROGRAM SYSTEM MOLPRO  ***
                                       Copyright, TTI GmbH Stuttgart, 2015
                                    Version 2019.2 linked Oct 25 2019 22:50:27


 **********************************************************************************************************************************
 LABEL *                                                                                 
  64 bit serial version                                                                  DATE: 22-Sep-20          TIME: 19:39:07  
 **********************************************************************************************************************************

 SHA1:             8dbd9ae1082e4ce945b0f27595c9eb2d4aa09004
 **********************************************************************************************************************************
 SETTING GEOMTYP        =    XYZ

 Variable memory set to 1024000000 words,  buffer space 

 ZSYMEL=NOSYM

 SETTING BASIS          =    AVQZ


 Recomputing integrals since basis changed


 Using spherical harmonics

 Library entry C      S aug-cc-pVQZ          selected for orbital group  1
 Library entry C      P aug-cc-pVQZ          selected for orbital group  1
 Library entry C      D aug-cc-pVQZ          selected for orbital group  1
 Library entry C      F aug-cc-pVQZ          selected for orbital group  1
 Library entry C      G aug-cc-pVQZ          selected for orbital group  1
 Library entry H      S aug-cc-pVQZ          selected for orbital group  2
 Library entry H      P aug-cc-pVQZ          selected for orbital group  2
 Library entry H      D aug-cc-pVQZ          selected for orbital group  2
 Library entry H      F aug-cc-pVQZ          selected for orbital group  2


 PROGRAM * SEWARD (Integral evaluation for generally contracted gaussian basis sets)     Author: Roland Lindh, 1990

 Geometry written to block  1 of record 700


 Point group  C1  



 ATOMIC COORDINATES

 NR  ATOM    CHARGE       X              Y              Z

   1  C       6.00   -1.544142186    1.886404169   -0.071819928
   2  C       6.00   -1.402723639   -0.162631255    1.773798315
   3  C       6.00   -0.114524338   -2.035728716   -0.180695277
   4  C       6.00    0.026367405    0.252678045   -1.415087441
   5  C       6.00    2.813389007    0.112408637   -0.017077101
   6  H       1.00    0.009117039    4.408337358    0.068783170
   7  H       1.00   -3.391538078    2.778490484   -0.272512311
   8  H       1.00   -2.535828910   -1.357318494    3.735607101
   9  H       1.00   -2.504065689   -1.701908770   -0.684021587
  10  H       1.00    3.101637363   -2.592208874   -0.809176401
  11  H       1.00   -0.089106704    1.563873601   -3.581413624
  12  H       1.00    3.373783669    0.024269523    1.312037055
  13  H       1.00    2.670673767   -1.058600894   -2.058646825

 Bond lengths in Bohr (Angstrom)

 1-2  2.761313469  1-4  2.634374505  1-7  2.061302259  2-3  2.997998788  2-4  3.519058878
     ( 1.461224160)     ( 1.394050953)     ( 1.090794181)     ( 1.586472637)     ( 1.862205762)

 2-8  2.561229952  3-4  2.603916282  3-5  3.635098562  3-9  2.464686795  4-5  3.121153285
     ( 1.355344523)     ( 1.377933155)     ( 1.923611318)     ( 1.304256084)     ( 1.651643190)

  4-11  2.534864333   5-12  1.445114224   5-13  2.357888441
       ( 1.341392438)       ( 0.764721514)       ( 1.247740829)

 Bond angles

  1-2-3   92.85939083   1-2-4   47.74354845   1-2-8  146.66069493   1-4-2   50.87822210

  1- 4- 3  105.72606356   1- 4- 5  109.37916805   1- 4-11   95.03842218   2- 1- 4   81.37822945

  2-1-7  115.60205851   2-3-4   77.48002756   2-3-5   86.99280309   2-3-9   68.40320831

  2- 4- 3   56.27102862   2- 4- 5   87.21618883   2- 4-11  144.78315190   3- 2- 4   46.24894381

  3- 2- 8  113.45462268   3- 4- 5   78.25737025   3- 4-11  149.00975739   3- 5- 4   44.53418277

  3- 5-12  108.52387693   3- 5-13   67.59153230   4- 1- 7  138.85447652   4- 2- 8  158.24980067

  4- 3- 5   57.20844698   4- 3- 9   80.59681791   4- 5-12  139.55005955   4- 5-13   65.19363266

  5- 3- 9  135.23920966   5- 4-11  116.53328414  12- 5-13  142.14121380

 NUCLEAR CHARGE:                   38
 NUMBER OF PRIMITIVE AOS:        1046
 NUMBER OF SYMMETRY AOS:          849
 NUMBER OF CONTRACTIONS:          768   (  768A   )
 NUMBER OF CORE ORBITALS:           5   (    5A   )
 NUMBER OF VALENCE ORBITALS:       28   (   28A   )


 NUCLEAR REPULSION ENERGY  175.95998823


 Eigenvalues of metric

         1 0.363E-06 0.130E-05 0.183E-05 0.201E-05 0.234E-05 0.258E-05 0.288E-05 0.395E-05


 OPERATOR DM      FOR CENTER  0  COORDINATES:    0.000000    0.000000    0.000000


 **********************************************************************************************************************************
 DATASETS  * FILE   NREC   LENGTH (MB)   RECORD NAMES
              1      18       51.66       500      610      700      900      950      970     1000      129      960     1100   
                                          VAR    BASINP    GEOM    SYMINP    ZMAT    AOBASIS   BASIS     P2S    ABASIS      S 
                                         1400     1410     1200     1210     1080     1600     1650     1700   
                                           T        V       H0       H01     AOSYM     SMH    MOLCAS    OPER   

 PROGRAMS   *        TOTAL       INT
 CPU TIMES  *         1.25      1.12
 REAL TIME  *         2.30 SEC
 DISK USED  *        52.38 MB
 **********************************************************************************************************************************


 PROGRAM * RHF-SCF (CLOSED SHELL)       Authors: W. Meyer, H.-J. Werner


 NUMBER OF ELECTRONS:      19+   19-    SPACE SYMMETRY=1    SPIN SYMMETRY: Singlet 
 CONVERGENCE THRESHOLDS:    1.00E-05 (Density)    1.00E-07 (Energy)
 INTEGRAL THRESHOLDS:       1.00E-13 (Initial)    1.00E-13 (Final)
 MAX. NUMBER OF ITERATIONS:       60
 INTERPOLATION TYPE:            DIIS
 INTERPOLATION STEPS:              2 (START)      1 (STEP)
 LEVEL SHIFTS:                  0.00 (CLOSED)  0.00 (OPEN) 




 Basis set AUG-CC-PVQZ/JKFIT generated.  Number of basis functions:   1318 

 Orbital guess generated from atomic densities. Full valence occupancy:   33
 Using density fitting in orbital guess

 Coulomb and exchange fitting
 Thresholds for fitting:       THRAO_COUL= 1.0D-16    THRAO_EXCH= 1.0D-14    THRMO= 1.0D-13    THRPROD= 1.0D-13    THRASM= 1.0D-13
                               THR2HLF=    1.0D-13

 Molecular orbital dump at record        2100.2

 Initial occupancy:  19

 ITERATION   DDIFF            GRAD            ENERGY        2-EL.EN.            DIPOLE MOMENTS         DIIS   CPU(IT)  CPU(TOT)  ORB.
    1      0.000D+00      0.000D+00      -193.05391352    479.222868   -0.17788    0.03224   -0.84039    0     19.1     41.4     start
    2      0.000D+00      0.193D-02      -193.12653742    473.218915    0.09436    0.27646    0.20785    1     19.5     60.9     diag
    3      0.200D-02      0.104D-02      -193.14310330    476.507201   -0.16363    0.01555   -0.19664    2     19.4     80.3     diag
    4      0.764D-03      0.344D-03      -193.14717245    475.678528   -0.11846    0.13130   -0.03289    3     19.4     99.7     diag
    5      0.396D-03      0.150D-03      -193.14801009    475.705858   -0.14958    0.08036   -0.04842    4     19.4    119.1     diag
    6      0.145D-03      0.642D-04      -193.14842967    475.744285   -0.17832    0.11485   -0.01418    5     19.3    138.5     diag
    7      0.118D-03      0.485D-04      -193.14863549    475.718039   -0.19072    0.11595   -0.00562    6     19.5    158.0     diag
    8      0.864D-04      0.257D-04      -193.14874392    475.731502   -0.21263    0.12855    0.01046    7     19.3    177.3     diag
    9      0.820D-04      0.149D-04      -193.14877748    475.729539   -0.22451    0.13796    0.02054    8     19.3    196.6     diag
   10      0.564D-04      0.558D-05      -193.14878196    475.726620   -0.23052    0.14037    0.02535    9     19.6    216.2     orth
   11      0.211D-04      0.223D-05      -193.14878238    475.728123   -0.23182    0.14178    0.02604    9     19.4    235.6     diag
   12      0.600D-05      0.970D-06      -193.14878245    475.726675   -0.23232    0.14147    0.02631    9     19.2    254.8     diag
   13      0.169D-05      0.499D-06      -193.14878246    475.727341   -0.23222    0.14157    0.02626    0     19.4    274.2     orth

 Final occupancy:  19

 !RHF STATE  1.1 Energy              -193.148782463351
 Nuclear energy                       175.95998823
 One-electron energy                 -606.97244142
 Two-electron energy                  237.86367073
 Virial quotient                       -0.99693076
 !RHF STATE  1.1 Dipole moment         -0.23221958     0.14157313     0.02626273
 Dipole moment /Debye                  -0.59020465     0.35981944     0.06674884

 Orbital energies:

         1.1          2.1          3.1          4.1          5.1          6.1          7.1          8.1          9.1         10.1
    -11.314421   -11.292096   -11.290740   -11.255940   -11.249821    -1.269589    -1.038193    -0.916114    -0.871260    -0.741726

        11.1         12.1         13.1         14.1         15.1         16.1         17.1         18.1         19.1         20.1
     -0.702189    -0.634752    -0.574498    -0.534791    -0.470554    -0.450756    -0.411066    -0.351869    -0.252175     0.023345

        21.1
      0.030436


 HOMO     19.1    -0.252175 =      -6.8620eV
 LUMO     20.1     0.023345 =       0.6353eV
 LUMO-HOMO         0.275521 =       7.4973eV


 **********************************************************************************************************************************
 DATASETS  * FILE   NREC   LENGTH (MB)   RECORD NAMES
              1      18       51.66       500      610      700      900      950      970     1000      129      960     1100   
                                          VAR    BASINP    GEOM    SYMINP    ZMAT    AOBASIS   BASIS     P2S    ABASIS      S 
                                         1400     1410     1200     1210     1080     1600     1650     1700   
                                           T        V       H0       H01     AOSYM     SMH    MOLCAS    OPER   

              2       4       17.26       700     1000      520     2100   
                                         GEOM     BASIS   MCVARS     RHF  

 PROGRAMS   *        TOTAL     DF-HF       INT
 CPU TIMES  *       275.80    274.55      1.12
 REAL TIME  *       285.15 SEC
 DISK USED  *       336.49 MB
 **********************************************************************************************************************************


 Input parameters for LOCAL:

 LOCAL  =    5.000000
 THRLOC =   -1.000000

 PROGRAM * CCSD (Unrestricted open-shell coupled cluster)     Authors: C. Hampel, H.-J. Werner, 1991, M. Deegan, P.J. Knowles, 1992

                    Density fitting coupled cluster methods (ITF), W. Gyorffy, 2015

                              Local implementation by Y. Liu and H.-J. Werner, 2009


 Setting use_dist= 1

 Basis set AUG-CC-PVQZ/MP2FIT generated. Number of basis functions:   1480 

 Convergence thresholds:  THRVAR = 1.00D-08  THRDEN = 1.00D-06

 Number of core orbitals:           5 (   5 )
 Number of closed-shell orbitals:  14 (  14 )
 Number of external orbitals:     749 ( 749 )

 Options for lccsd:

   local=       4
   iopdom=      5
   isdom=       2
   i3ext=       3
   i4ext=       1

 Using operators K(Cij)  

 icfit_3ext= 2  icfit_4ext= 2
 locfit_ccsd= 0  locfit_2ext= 0  locfit_3ext= 0  locfit_4ext= 0  locfit=-1

 Molecular orbitals read from record     2100.2  Type=RHF/CANONICAL (state 1.1)

 Local correlation treatment
 ===========================

 LOCAL=5  IBASO=0  NONORM=0  IDLCOR=2  KEEPCORE=0  SKIPD=3  LOCSNG= 0  LOCMUL=0  CANBLK=0  SHELLPERM=F

 Thresholds:

 THRLOC=  1.00D-06 (Smallest allowed eigenvalue in domain redundancy check)
 THRGAP=  1.00D-06 (Minimum eigenvalue gap in domain redundancy check)
 THRLOCT= 1.00D-06 (Smallest allowed eigenvalue in domain redundancy check of triples)
 THRGAPT= 1.00D-06 (Minimum eigenvalue gap in domain redundancy check of triples)
 THRORB=  1.00D-06 (Norm of projected orbitals)
 THRMP2=  1.00D-08 (Neglect of small Fock matrix elements)

 Orbital domain selection criteria:

 CHGFRAC=  0.990   CHGMIN=   0.010   CHGMINH=  0.030   CHGMAX=  0.500   CHGMIN_PAIRS=  0.200    MERGEDOM=0   CANBLK=0

 Weak and distant pair selection criteria:

 RCLOSE= 1.000   RWEAK= 3.000   RDIST= 8.000   RVDIST=15.000   KEEPCLS=0   KEEPCLS_3EXT=0   MP4CLS=0

 Options for approximating pair-single interactions:   JEDOM= 0   RMAX3X= 0.000   SKIPGE=0


 Pipek-Mezey localisation finished (npass= 12  nrot=    961  Thresh=  0.10D-08  CPU=   0.01 sec)

 Ordering localized MOs according to charge centroids

 Generating projected atomic orbitals

 Deleting projected core orbital    1.1 (C 1s)    Norm=  0.12D-02
 Deleting projected core orbital   81.1 (C 1s)    Norm=  0.84D-03
 Deleting projected core orbital  161.1 (C 1s)    Norm=  0.20D-02
 Deleting projected core orbital  241.1 (C 1s)    Norm=  0.13D-02
 Deleting projected core orbital  321.1 (C 1s)    Norm=  0.21D-02

 Ranking of atoms according to Loewdin charges

 Orbital domains

   Orb.   Atom     Charge      Crit.
   6.1    3 C       0.92       0.984
          9 H       0.23       0.985
          4 C       0.19       0.994
   7.1    5 C       0.52       0.957
         10 H       0.45       0.977
         13 H       0.42       0.983
          3 C       0.20       0.995
   8.1    2 C       0.53       0.913
          3 C       0.45       0.976
          9 H       0.43       0.986
          4 C       0.20       0.995
   9.1    2 C       0.63       0.000
          3 C       0.59       0.991
  10.1    4 C       0.62       0.000
          3 C       0.62       0.993
  11.1    2 C       0.85       0.000
          8 H       0.70       0.996
  12.1    5 C       0.91       0.000
         12 H       0.65       0.995
  13.1    5 C       0.52       0.000
          4 C       0.51       0.987
          3 C       0.23       0.994
  14.1    5 C       0.78       0.954
         12 H       0.32       0.959
         13 H       0.27       0.966
          4 C       0.20       0.985
         10 H       0.14       0.986
          3 C       0.13       0.995
  15.1    4 C       0.72       0.000
         11 H       0.62       0.992
  16.1    2 C       0.68       0.000
          1 C       0.64       0.996
  17.1    1 C       0.64       0.000
          4 C       0.62       0.994
  18.1    1 C       0.84       0.000
          7 H       0.66       0.994
  19.1    1 C       0.67       0.000
          6 H       0.64       0.991

 Number of strong pairs:          60
 Number of close pairs:           32     Rmin=      2.604
 Number of weak pairs:            13     Rmin=      3.121

 Average pair domain sizes:      301    (strong pairs: 276, close pairs: 348, weak pairs: 298, distant pairs:   0)
 Number of redundant orbitals:    22

 Largest S-eigenvalue of redundant functions:  0.1599D-05   Pair:  45  Symmetry: 1
 Smallest S-eigenvalue of domains              0.1301D-05   Pair:  53  Symmetry: 1

 United MP2 domains:        min= 763  max= 763  average= 763
 United LUCCSD domains:     min= 329  max= 763  average= 621

 Number of correlated orbitals in LUCCSD:  14
 Total United LUCCSD domain size:         763

 CPU-time for pair domains:             7.12 SEC

 Distance criteria for operator lists:     RMAXJ=      8.00  RMAXK=      8.00  RMAXL=     15.00
 Distance criteria for operator domains:   RDOMJ=      0.00  RDOMK=      8.00

 Using operator domains:    iopdom=5   sdom=2  kextyp=0   triptyp=2

 Number of orbital pairs:        105
 Length of K(kl) list:           105
 Number of operators K(kl):      105 (421.30 MB)   Domain sizes:    min= 500  max= 763  average= 722
 Number of operators J(kl):      105 (188.92 MB)   Domain sizes:    min= 250  max= 717  average= 468
 Number of y,z intermediates:    184
 Number of operators J/K(E):     184 (504.96 MB)   Domain sizes:    min= 250  max= 717  average= 479


 File size for 4-external integrals using center quadruplets:  149.463 GB

 File limit (100.0 GB) exceeded. Switching to CFIT_D4EXT=1

 Number of N-1 electron functions:              28
 Number of N-2 electron functions:             378
 Number of singly external CSFs:              5212
 Number of doubly external CSFs:          29932474
 Total number of CSFs:                    29937686

 Number of correlated orbitals:                 14
 Number of weak pair functions:                 13  (treated by MP2)
 Number of strong pair functions:               60
 Total number of pair functions:               105
 Number of singly external local CSFs:        2606
 Number of doubly external local CSFs:    10081609 (all pairs)   8892798 (strong pairs)   1188811 (weak pairs)
 Total number of local CSFs:              10084216 (all pairs)   8895405 (strong pairs)

 Using 3-external integrals

 File size for 3-external integrals using MO/center triples:    21.319 GB

 AO-basis loaded. Number of functions:                 768

 Fitting-basis AUG-CC-PVQZ-MP2F loaded for 0-2-external integrals.

 Number of fitting functions:                     1480
 CPU time for 2-ext exchange integrals           25.61 sec, Elapsed time=     27.17 sec

 Using incore algorithm in dfasmbl_coul, locfit=0

 CPU time for 2-ext Coulomb integrals            30.21 sec, Elapsed time=     30.86 sec
 CPU time for DF-2ext transformation (total)     55.82 sec, Elapsed time=     58.03 sec
 Local fitting disabled for 3-ext integrals

 Fitting-basis AUG-CC-PVQZ-MP2F loaded for 3-external integrals.

 Number of fitting functions:                     1480
 CPU time for DF-3ext transformations           668.44 sec, Elapsed time=    897.32 sec (including assembly of 3ext integrals)

 4-ext integrals assembled on-the-fly

 Fitting-basis AUG-CC-PVQZ-MP2F loaded for 4-external integrals.

 Number of fitting functions:                     1480
 CPU time for DF-4ext transformations           203.60 sec, Elapsed time=    219.78 sec

 Reference energy:                   -193.14878246

 ITER.     SQ.NORM      CORR.ENERGY   TOTAL ENERGY   ENERGY CHANGE        DEN1      VAR(S)    VAR(P)  DIIS     TIME
   1      1.35354138    -0.97472645  -194.12350891    -0.97472645    -0.01613999  0.51D-09  0.77D-02  1  1   980.49
   2      1.37535455    -0.99564401  -194.14442647    -0.02091756    -0.00126332  0.14D-09  0.72D-03  2  2  1013.09
   3      1.37307846    -0.99208088  -194.14086334     0.00356313    -0.00057489  0.22D-10  0.33D-03  3  3  1045.62
   4      1.37339863    -0.99210635  -194.14088881    -0.00002547    -0.00003928  0.86D-11  0.26D-04  4  4  1078.70
   5      1.37364645    -0.99228064  -194.14106311    -0.00017429    -0.00000234  0.29D-11  0.15D-05  5  5  1112.05
   6      1.37373096    -0.99231244  -194.14109490    -0.00003179    -0.00000100  0.83D-12  0.70D-06  6  6  1145.48
   7      1.37375323    -0.99231615  -194.14109862    -0.00000372    -0.00000006  0.20D-12  0.44D-07  6  1  1179.19
   8      1.37375893    -0.99231965  -194.14110211    -0.00000350    -0.00000001  0.40D-13  0.70D-08  6  2  1212.40
   9      1.37375975    -0.99232028  -194.14110274    -0.00000062    -0.00000000  0.89D-14  0.77D-09  6  3  1245.90

 Spin contamination <S**2-Sz**2-Sz>     0.00000000

 Norm of t1 vector:      0.00009677      S-energy:    -0.00000000      T1 diagnostic:  0.00002196
 Norm of t2 vector:      0.61135893      P-energy:    -0.99232027
                                         Alpha-Beta:  -0.75258239
                                         Alpha-Alpha: -0.11986894
                                         Beta-Beta:   -0.11986894

 MP2 energy of close+weak+distant pairs    -0.07407901

 Reference energy                    -193.148782463351
 Correlation energy                    -0.992320275167
 !RHF-LRMP2 STATE  1.1 Energy        -194.141102738517

 Starting LUCCSD calculation

 Reference energy:                   -193.14878246

 ITER.     SQ.NORM      CORR.ENERGY   TOTAL ENERGY   ENERGY CHANGE        DEN1      VAR(S)    VAR(P)  DIIS     TIME
   1      1.34399031    -0.91038778  -194.05917024    -0.91038778    -0.02888224  0.54D-02  0.71D-02  1  1  5407.18
   2      1.36543087    -0.92719357  -194.07597604    -0.01680579    -0.00303552  0.37D-03  0.11D-02  2  2  9601.31
   3      1.37512921    -0.93191732  -194.08069979    -0.00472375    -0.00104076  0.24D-03  0.38D-03  3  3 13687.43
   4      1.38735267    -0.93694386  -194.08572633    -0.00502654    -0.00056492  0.15D-03  0.21D-03  4  4 17747.17
   5      1.40038275    -0.94112794  -194.08991040    -0.00418408    -0.00021551  0.78D-04  0.78D-04  5  5 21832.62
   6      1.40301183    -0.94103376  -194.08981623     0.00009418    -0.00005169  0.29D-04  0.16D-04  6  6 25948.50
   7      1.40657597    -0.94194114  -194.09072360    -0.00090737    -0.00002732  0.17D-04  0.76D-05  6  1 30091.62
   8      1.41546445    -0.94308040  -194.09186287    -0.00113927    -0.00001352  0.98D-05  0.33D-05  6  2 34269.06
   9      1.41625045    -0.94314051  -194.09192297    -0.00006010    -0.00000579  0.22D-05  0.21D-05  6  3 38118.83
  10      1.41292984    -0.94231232  -194.09109478     0.00082819    -0.00000641  0.22D-05  0.24D-05  6  4 41896.83
  11      1.41451520    -0.94264486  -194.09142732    -0.00033254    -0.00000055  0.28D-06  0.17D-06  6  5 45828.84
  12      1.41270887    -0.94241637  -194.09119884     0.00022848    -0.00000078  0.30D-06  0.31D-06  6  1 49781.33
  13      1.41330673    -0.94245120  -194.09123367    -0.00003483    -0.00000022  0.16D-06  0.47D-07  6  6 53903.94
  14      1.41340740    -0.94244844  -194.09123090     0.00000277    -0.00000004  0.28D-07  0.98D-08  6  2 57650.26
  15      1.41343578    -0.94243514  -194.09121760     0.00001330    -0.00000002  0.14D-07  0.49D-08  6  5 61437.56
  16      1.41351476    -0.94244388  -194.09122635    -0.00000875    -0.00000000  0.34D-08  0.88D-09  6  1 65051.71
  17      1.41354338    -0.94244787  -194.09123033    -0.00000399    -0.00000000  0.13D-08  0.34D-09  6  6 69231.71
  18      1.41354798    -0.94245001  -194.09123247    -0.00000214    -0.00000000  0.61D-09  0.20D-09  6  3 73010.08
  19      1.41353592    -0.94244969  -194.09123215     0.00000032    -0.00000000  0.28D-09  0.76D-10  6  4 76959.81

 Spin contamination <S**2-Sz**2-Sz>     0.00000000

 Norm of t1 vector:      0.14608560      S-energy:     0.00000105      T1 diagnostic:  0.04991422
 Norm of t2 vector:      0.62625467      P-energy:    -0.94245074
                                         Alpha-Beta:  -0.75827844
                                         Alpha-Alpha: -0.09208615
                                         Beta-Beta:   -0.09208615
 Total MP2 weak+close+distant pair     -0.011343808590


  RESULTS
  =======

  LUCCSD strong pair energy            -0.942450736512
  LMP2 close pair energy               -0.062735202409
  LMP2 weak pair energy                -0.011343808590


  Reference energy                   -193.148782463351

  LUCCSD correlation energy            -1.016528699733
 !LUCCSD total energy                -194.165311163084

 Program statistics:

 Available memory:                      1023999981
 Available memory in lrmp2:             1020890246
 Max. memory used in lrmp2:              138534350
 Min. memory needed in lrmp2:             99359324
 Available memory in luccsd:            1011201046
 Max. memory used in luccsd:             136892591
 Min. memory needed in luccsd:           118778981



 **********************************************************************************************************************************
 DATASETS  * FILE   NREC   LENGTH (MB)   RECORD NAMES
              1      19       51.66       500      610      700      900      950      970     1000      129      960     1100   
                                          VAR    BASINP    GEOM    SYMINP    ZMAT    AOBASIS   BASIS     P2S    ABASIS      S 
                                         1400     1410     1200     1210     1080     1600     1650     1700      960(1)
                                           T        V       H0       H01     AOSYM     SMH    MOLCAS    OPER    ABASIS    

              2       4       17.26       700     1000      520     2100   
                                         GEOM     BASIS   MCVARS     RHF  

 PROGRAMS   *        TOTAL DF-LUCCSD     DF-HF       INT
 CPU TIMES  *     77238.64  76962.81    274.55      1.12
 REAL TIME  *     82806.87 SEC
 DISK USED  *        51.87 GB
 **********************************************************************************************************************************

 DF-LUCCSD/aug-cc-pVQZ energy=   -194.165311163084

       DF-LUCCSD           DF-HF
   -194.16531116   -193.14878246
 **********************************************************************************************************************************
 Molpro calculation terminated
