
 Primary working directories    : /var/tmp/pbs.368075.bp1/molpro.PRLSVXoQRy
 Secondary working directories  : /var/tmp/pbs.368075.bp1/molpro.PRLSVXoQRy
 Wavefunction directory         : /home/lb17101/molpro_test/inp/lowmem/
 Main file repository           : /home/lb17101/molpro_test/inp/lowmem/

 id        : uob

 Nodes                         nprocs
 bp1-01-02-03.data.bp.acrc.priv    1

 Using customized tuning parameters: mindgm=1; mindgv=20; mindgc=4; mindgr=1; noblas=0; minvec=7
 default implementation of scratch files=df  


 Variables initialized (934), CPU time= 0.00 sec
 geomtyp=xyz
 nosym
 noorient
 geometry={
  O       0.316292055736      -0.124960524545       1.757968661833
  C       0.232577462016      -0.538661708712       0.462666966351
  C      -0.723794322699      -1.023964868199      -0.618813666053
  C      -1.478688923176       0.283342853574      -0.521850051125
  C      -1.745214902596       1.382233282003      -0.506642760834
  C       1.399795339529       0.242865209382      -0.040514005284
  C       2.372992364427       0.952133049175      -0.780637927547
  H       0.353265030169       1.039914366684       1.639163797468
  H       1.076419883419      -1.574154198331       0.127187780010
  H      -1.109615428460      -2.174432056438      -0.119839084829
  H       0.079168877958      -1.061355668680      -1.642309835516
  H      -2.077630208711       2.243686811813      -1.241316814978
  H       3.202052423072       0.303222578519      -0.052430641190
 }
 basis=avqz
 local,thrbp=0.99
 df-hf
 df-luccsd
 Commands  initialized (763), CPU time= 0.00 sec, 617 directives.
 Default parameters read. Elapsed time= 0.07 sec

 Checking input...
 Passed
1


                                         ***  PROGRAM SYSTEM MOLPRO  ***
                                       Copyright, TTI GmbH Stuttgart, 2015
                                    Version 2019.2 linked Oct 25 2019 22:50:27


 **********************************************************************************************************************************
 LABEL *                                                                                 
  64 bit serial version                                                                  DATE: 22-Sep-20          TIME: 19:38:06  
 **********************************************************************************************************************************

 SHA1:             8dbd9ae1082e4ce945b0f27595c9eb2d4aa09004
 **********************************************************************************************************************************
 SETTING GEOMTYP        =    XYZ

 Variable memory set to 1024000000 words,  buffer space 

 ZSYMEL=NOSYM

 SETTING BASIS          =    AVQZ


 Recomputing integrals since basis changed


 Using spherical harmonics

 Library entry O      S aug-cc-pVQZ          selected for orbital group  1
 Library entry O      P aug-cc-pVQZ          selected for orbital group  1
 Library entry O      D aug-cc-pVQZ          selected for orbital group  1
 Library entry O      F aug-cc-pVQZ          selected for orbital group  1
 Library entry O      G aug-cc-pVQZ          selected for orbital group  1
 Library entry C      S aug-cc-pVQZ          selected for orbital group  2
 Library entry C      P aug-cc-pVQZ          selected for orbital group  2
 Library entry C      D aug-cc-pVQZ          selected for orbital group  2
 Library entry C      F aug-cc-pVQZ          selected for orbital group  2
 Library entry C      G aug-cc-pVQZ          selected for orbital group  2
 Library entry H      S aug-cc-pVQZ          selected for orbital group  3
 Library entry H      P aug-cc-pVQZ          selected for orbital group  3
 Library entry H      D aug-cc-pVQZ          selected for orbital group  3
 Library entry H      F aug-cc-pVQZ          selected for orbital group  3


 PROGRAM * SEWARD (Integral evaluation for generally contracted gaussian basis sets)     Author: Roland Lindh, 1990

 Geometry written to block  1 of record 700


 Point group  C1  



 ATOMIC COORDINATES

 NR  ATOM    CHARGE       X              Y              Z

   1  O       8.00    0.597705361   -0.236141168    3.322079306
   2  C       6.00    0.439507706   -1.017923103    0.874313853
   3  C       6.00   -1.367773040   -1.935013162   -1.169388351
   4  C       6.00   -2.794317088    0.535440393   -0.986153675
   5  C       6.00   -3.297978194    2.612042343   -0.957416061
   6  C       6.00    2.645229822    0.458948731   -0.076560374
   7  C       6.00    4.484305664    1.799270697   -1.475191886
   8  H       1.00    0.667574156    1.965153346    3.097570651
   9  H       1.00    2.034138775   -2.974720313    0.240350071
  10  H       1.00   -2.096869263   -4.109081063   -0.226463049
  11  H       1.00    0.149607497   -2.005671535   -3.103515801
  12  H       1.00   -3.926152083    4.239953584   -2.345748814
  13  H       1.00    6.051002116    0.573007628   -0.099079552

 Bond lengths in Bohr (Angstrom)

 1-2  2.574444640  1-8  2.213816461  2-3  2.878200231  2-6  2.819667049  2-9  2.602655114
     ( 1.362337434)     ( 1.171501220)     ( 1.523077971)     ( 1.492103544)     ( 1.377265774)

  3- 4  2.858626179   3-10  2.479366989   3-11  2.459326187   4- 5  2.137001643   5-12  2.229835257
       ( 1.512719829)       ( 1.312024508)       ( 1.301419372)       ( 1.130852569)       ( 1.179978002)

  6- 7  2.671110823   7-13  2.419079172
       ( 1.413490976)       ( 1.280121569)

 Bond angles

  1-2-3  144.14163529   1-2-6   96.51775116   1-2-9  114.97743941   2-1-8  101.97409925

  2- 3- 4   89.56866075   2- 3-10  101.18658131   2- 3-11  100.37905865   2- 6- 7  167.95755643

  3- 2- 6  114.74859256   3- 2- 9   88.40698999   3- 4- 5  163.38762993   4- 3-10  125.92102315

  4- 3-11  112.52814726   4- 5-12  140.12525814   6- 2- 9   80.34978186   6- 7-13   83.89688914

 10- 3-11  117.08649087

 NUCLEAR CHARGE:                   50
 NUMBER OF PRIMITIVE AOS:        1168
 NUMBER OF SYMMETRY AOS:          939
 NUMBER OF CONTRACTIONS:          836   (  836A   )
 NUMBER OF CORE ORBITALS:           7   (    7A   )
 NUMBER OF VALENCE ORBITALS:       34   (   34A   )


 NUCLEAR REPULSION ENERGY  253.91690295


 Eigenvalues of metric

         1 0.105E-05 0.154E-05 0.231E-05 0.318E-05 0.335E-05 0.411E-05 0.472E-05 0.555E-05


 OPERATOR DM      FOR CENTER  0  COORDINATES:    0.000000    0.000000    0.000000


 **********************************************************************************************************************************
 DATASETS  * FILE   NREC   LENGTH (MB)   RECORD NAMES
              1      18       55.62       500      610      700      900      950      970     1000      129      960     1100   
                                          VAR    BASINP    GEOM    SYMINP    ZMAT    AOBASIS   BASIS     P2S    ABASIS      S 
                                         1400     1410     1200     1210     1080     1600     1650     1700   
                                           T        V       H0       H01     AOSYM     SMH    MOLCAS    OPER   

 PROGRAMS   *        TOTAL       INT
 CPU TIMES  *         1.14      1.03
 REAL TIME  *         2.18 SEC
 DISK USED  *        56.37 MB
 **********************************************************************************************************************************


 PROGRAM * RHF-SCF (CLOSED SHELL)       Authors: W. Meyer, H.-J. Werner


 NUMBER OF ELECTRONS:      25+   25-    SPACE SYMMETRY=1    SPIN SYMMETRY: Singlet 
 CONVERGENCE THRESHOLDS:    1.00E-05 (Density)    1.00E-07 (Energy)
 INTEGRAL THRESHOLDS:       1.00E-12 (Initial)    1.00E-12 (Final)
 MAX. NUMBER OF ITERATIONS:       60
 INTERPOLATION TYPE:            DIIS
 INTERPOLATION STEPS:              2 (START)      1 (STEP)
 LEVEL SHIFTS:                  0.00 (CLOSED)  0.00 (OPEN) 




 Basis set AUG-CC-PVQZ/JKFIT generated.  Number of basis functions:   1450 

 Orbital guess generated from atomic densities. Full valence occupancy:   41
 Using density fitting in orbital guess

 Coulomb and exchange fitting
 Thresholds for fitting:       THRAO_COUL= 1.0D-15    THRAO_EXCH= 1.0D-13    THRMO= 1.0D-12    THRPROD= 1.0D-12    THRASM= 1.0D-12
                               THR2HLF=    1.0D-12

 Molecular orbital dump at record        2100.2

 Initial occupancy:  25

 ITERATION   DDIFF            GRAD            ENERGY        2-EL.EN.            DIPOLE MOMENTS         DIIS   CPU(IT)  CPU(TOT)  ORB.
    1      0.000D+00      0.000D+00      -305.02251896    715.207481   -1.05281   -1.90738    0.46213    0     20.1     40.7     start
    2      0.000D+00      0.236D-02      -305.10788430    715.498475   -0.51158   -0.08454   -0.48938    1     19.3     60.0     diag
    3      0.232D-02      0.160D-02      -305.15723197    713.586600   -0.94830   -0.95156    0.02916    2     19.3     79.3     diag
    4      0.994D-03      0.450D-03      -305.16332681    714.973353   -0.79297   -0.78850   -0.15999    3     19.2     98.6     diag
    5      0.370D-03      0.181D-03      -305.16488559    714.476789   -0.83590   -0.79360   -0.11766    4     19.2    117.8     diag
    6      0.164D-03      0.726D-04      -305.16538698    714.556584   -0.82530   -0.78169   -0.15060    5     19.2    136.9     diag
    7      0.916D-04      0.405D-04      -305.16558423    714.572150   -0.81871   -0.78265   -0.14671    6     19.3    156.2     diag
    8      0.625D-04      0.212D-04      -305.16564738    714.572190   -0.81394   -0.77964   -0.15345    7     19.3    175.5     diag
    9      0.423D-04      0.884D-05      -305.16565708    714.571578   -0.81167   -0.78022   -0.15350    8     19.2    194.7     diag
   10      0.189D-04      0.296D-05      -305.16565790    714.571532   -0.81098   -0.78095   -0.15380    9     19.3    214.1     orth
   11      0.477D-05      0.143D-05      -305.16565810    714.572530   -0.81085   -0.78040   -0.15377    9     19.3    233.3     diag
   12      0.215D-05      0.739D-06      -305.16565818    714.571794   -0.81090   -0.78059   -0.15389    9     19.2    252.6     diag
   13      0.125D-05      0.416D-06      -305.16565820    714.572222   -0.81092   -0.78058   -0.15386    0     19.3    271.8     orth

 Final occupancy:  25

 !RHF STATE  1.1 Energy              -305.165658198301
 Nuclear energy                       253.91690295
 One-electron energy                 -916.36867208
 Two-electron energy                  357.28611093
 Virial quotient                       -1.00395582
 !RHF STATE  1.1 Dipole moment         -0.81092313    -0.78057655    -0.15386105
 Dipole moment /Debye                  -2.06102600    -1.98389775    -0.39105016

 Orbital energies:

         1.1          2.1          3.1          4.1          5.1          6.1          7.1          8.1          9.1         10.1
    -20.616783   -11.374445   -11.352333   -11.309688   -11.267812   -11.249436   -11.227669    -1.408309    -1.131810    -1.049534

        11.1         12.1         13.1         14.1         15.1         16.1         17.1         18.1         19.1         20.1
     -0.989473    -0.871279    -0.735979    -0.712582    -0.654594    -0.650648    -0.616428    -0.579640    -0.543606    -0.498210

        21.1         22.1         23.1         24.1         25.1         26.1         27.1
     -0.454234    -0.431546    -0.422695    -0.398484    -0.351008     0.018673     0.028290


 HOMO     25.1    -0.351008 =      -9.5514eV
 LUMO     26.1     0.018673 =       0.5081eV
 LUMO-HOMO         0.369682 =      10.0596eV


 **********************************************************************************************************************************
 DATASETS  * FILE   NREC   LENGTH (MB)   RECORD NAMES
              1      18       55.62       500      610      700      900      950      970     1000      129      960     1100   
                                          VAR    BASINP    GEOM    SYMINP    ZMAT    AOBASIS   BASIS     P2S    ABASIS      S 
                                         1400     1410     1200     1210     1080     1600     1650     1700   
                                           T        V       H0       H01     AOSYM     SMH    MOLCAS    OPER   

              2       4       19.90       700     1000      520     2100   
                                         GEOM     BASIS   MCVARS     RHF  

 PROGRAMS   *        TOTAL     DF-HF       INT
 CPU TIMES  *       273.22    272.07      1.03
 REAL TIME  *       281.29 SEC
 DISK USED  *       475.33 MB
 **********************************************************************************************************************************


 Input parameters for LOCAL:

 LOCAL  =    5.000000
 THRLOC =   -1.000000

 PROGRAM * CCSD (Unrestricted open-shell coupled cluster)     Authors: C. Hampel, H.-J. Werner, 1991, M. Deegan, P.J. Knowles, 1992

                    Density fitting coupled cluster methods (ITF), W. Gyorffy, 2015

                              Local implementation by Y. Liu and H.-J. Werner, 2009


 Setting use_dist= 1

 Basis set AUG-CC-PVQZ/MP2FIT generated. Number of basis functions:   1656 

 Convergence thresholds:  THRVAR = 1.00D-08  THRDEN = 1.00D-06

 Number of core orbitals:           7 (   7 )
 Number of closed-shell orbitals:  18 (  18 )
 Number of external orbitals:     811 ( 811 )

 Options for lccsd:

   local=       4
   iopdom=      5
   isdom=       2
   i3ext=       3
   i4ext=       1

 Using operators K(Cij)  

 icfit_3ext= 2  icfit_4ext= 2
 locfit_ccsd= 0  locfit_2ext= 0  locfit_3ext= 0  locfit_4ext= 0  locfit=-1

 Molecular orbitals read from record     2100.2  Type=RHF/CANONICAL (state 1.1)

 Local correlation treatment
 ===========================

 LOCAL=5  IBASO=0  NONORM=0  IDLCOR=2  KEEPCORE=0  SKIPD=3  LOCSNG= 0  LOCMUL=0  CANBLK=0  SHELLPERM=F

 Thresholds:

 THRLOC=  1.00D-06 (Smallest allowed eigenvalue in domain redundancy check)
 THRGAP=  1.00D-06 (Minimum eigenvalue gap in domain redundancy check)
 THRLOCT= 1.00D-06 (Smallest allowed eigenvalue in domain redundancy check of triples)
 THRGAPT= 1.00D-06 (Minimum eigenvalue gap in domain redundancy check of triples)
 THRORB=  1.00D-06 (Norm of projected orbitals)
 THRMP2=  1.00D-08 (Neglect of small Fock matrix elements)

 Orbital domain selection criteria:

 CHGFRAC=  0.990   CHGMIN=   0.010   CHGMINH=  0.030   CHGMAX=  0.500   CHGMIN_PAIRS=  0.200    MERGEDOM=0   CANBLK=0

 Weak and distant pair selection criteria:

 RCLOSE= 1.000   RWEAK= 3.000   RDIST= 8.000   RVDIST=15.000   KEEPCLS=0   KEEPCLS_3EXT=0   MP4CLS=0

 Options for approximating pair-single interactions:   JEDOM= 0   RMAX3X= 0.000   SKIPGE=0


 Pipek-Mezey localisation finished (npass= 14  nrot=   1672  Thresh=  0.10D-08  CPU=   0.01 sec)

 Ordering localized MOs according to charge centroids

 Generating projected atomic orbitals

 Deleting projected core orbital    1.1 (O 1s)    Norm=  0.13D-02
 Deleting projected core orbital   81.1 (C 1s)    Norm=  0.10D-02
 Deleting projected core orbital  161.1 (C 1s)    Norm=  0.79D-03
 Deleting projected core orbital  241.1 (C 1s)    Norm=  0.19D-02
 Deleting projected core orbital  321.1 (C 1s)    Norm=  0.17D-02
 Deleting projected core orbital  401.1 (C 1s)    Norm=  0.12D-02
 Deleting projected core orbital  481.1 (C 1s)    Norm=  0.16D-02

 Ranking of atoms according to Loewdin charges

 Orbital domains

   Orb.   Atom     Charge      Crit.
   8.1    4 C       0.86       0.000
          5 C       0.85       0.998
   9.1    5 C       0.93       0.000
         12 H       0.72       0.995
  10.1    5 C       0.88       0.000
          4 C       0.73       0.996
  11.1    4 C       0.84       0.000
          5 C       0.81       0.997
  12.1    4 C       0.73       0.000
          3 C       0.71       0.996
  13.1    3 C       0.81       0.000
         10 H       0.66       0.991
  14.1    3 C       0.78       0.000
         11 H       0.60       0.992
  15.1    2 C       0.65       0.000
          3 C       0.63       0.991
  16.1    1 O       1.37       0.995
  17.1    1 O       0.98       0.000
          2 C       0.59       0.994
  18.1    1 O       1.10       0.982
          8 H       0.49       0.992
  19.1    1 O       1.40       0.986
          2 C       0.28       0.997
  20.1    2 C       0.69       0.000
          9 H       0.56       0.984
          6 C       0.26       0.993
  21.1    6 C       0.75       0.000
          2 C       0.62       0.993
  22.1    6 C       0.76       0.000
          7 C       0.68       0.997
  23.1    6 C       0.83       0.000
          7 C       0.72       0.997
  24.1    7 C       1.21       0.990
         13 H       0.35       0.991
  25.1    7 C       0.86       0.000
         13 H       0.57       0.983
          6 C       0.48       0.999

 Number of strong pairs:          60
 Number of close pairs:           39     Rmin=      2.137
 Number of weak pairs:            72     Rmin=      4.028

 Average pair domain sizes:      260    (strong pairs: 196, close pairs: 304, weak pairs: 289, distant pairs:   0)
 Number of redundant orbitals:    19

 Largest S-eigenvalue of redundant functions:  0.9598D-06   Pair: 164  Symmetry: 1
 Smallest S-eigenvalue of domains              0.1195D-05   Pair:  18  Symmetry: 1

 United MP2 domains:        min= 829  max= 829  average= 829
 United LUCCSD domains:     min= 204  max= 658  average= 403

 Number of correlated orbitals in LUCCSD:  18
 Total United LUCCSD domain size:         829

 CPU-time for pair domains:             4.71 SEC

 Distance criteria for operator lists:     RMAXJ=      8.00  RMAXK=      8.00  RMAXL=     15.00
 Distance criteria for operator domains:   RDOMJ=      0.00  RDOMK=      8.00

 Using operator domains:    iopdom=5   sdom=2  kextyp=0   triptyp=2

 Number of orbital pairs:        171
 Length of K(kl) list:           171
 Number of operators K(kl):      171 (445.71 MB)   Domain sizes:    min= 204  max= 829  average= 540
 Number of operators J(kl):      171 (123.71 MB)   Domain sizes:    min= 204  max= 533  average= 302
 Number of y,z intermediates:    180
 Number of operators J/K(E):     180 (205.47 MB)   Domain sizes:    min= 204  max= 533  average= 311


 File size for 4-external integrals using center quadruplets:   53.070 GB

 Number of N-1 electron functions:              36
 Number of N-2 electron functions:             630
 Number of singly external CSFs:              5384
 Number of doubly external CSFs:          35847260
 Total number of CSFs:                    35852644

 Number of correlated orbitals:                 18
 Number of weak pair functions:                 72  (treated by MP2)
 Number of strong pair functions:               60
 Total number of pair functions:               171
 Number of singly external local CSFs:        2692
 Number of doubly external local CSFs:    12033895 (all pairs)   5889716 (strong pairs)   6144179 (weak pairs)
 Total number of local CSFs:              12036588 (all pairs)   5892409 (strong pairs)

 Using 3-external integrals

 File size for 3-external integrals using MO/center triples:    11.427 GB

 AO-basis loaded. Number of functions:                 836

 Fitting-basis AUG-CC-PVQZ-MP2F loaded for 0-2-external integrals.

 Number of fitting functions:                     1656
 CPU time for 2-ext exchange integrals           23.17 sec, Elapsed time=     25.23 sec

 Using incore algorithm in dfasmbl_coul, locfit=0

 CPU time for 2-ext Coulomb integrals            24.71 sec, Elapsed time=     24.78 sec
 CPU time for DF-2ext transformation (total)     47.88 sec, Elapsed time=     50.01 sec
 Local fitting disabled for 3-ext integrals

 Fitting-basis AUG-CC-PVQZ-MP2F loaded for 3-external integrals.

 Number of fitting functions:                     1656
 CPU time for DF-3ext transformations           334.09 sec, Elapsed time=    386.09 sec (including assembly of 3ext integrals)

 Fitting-basis AUG-CC-PVQZ-MP2F loaded for 4-external integrals.

 Number of fitting functions:                     1656
 Distributing 4-ext file on two disks:          4490814032          2632179115          7122993147
 CPU time for DF-4ext transformations           737.16 sec, Elapsed time=    806.82 sec

 Reference energy:                   -305.16565820

 ITER.     SQ.NORM      CORR.ENERGY   TOTAL ENERGY   ENERGY CHANGE        DEN1      VAR(S)    VAR(P)  DIIS     TIME
   1      1.43074621    -1.28448242  -306.45014062    -1.28448242    -0.01731635  0.60D-09  0.76D-02  1  1  1158.13
   2      1.44737832    -1.30197507  -306.46763327    -0.01749265    -0.00100764  0.12D-09  0.51D-03  2  2  1185.94
   3      1.44990967    -1.30344072  -306.46909892    -0.00146565    -0.00011700  0.24D-10  0.63D-04  3  3  1213.19
   4      1.44982827    -1.30313215  -306.46879035     0.00030858    -0.00000464  0.37D-11  0.27D-05  4  4  1240.80
   5      1.44990996    -1.30320001  -306.46885821    -0.00006786    -0.00000038  0.81D-12  0.21D-06  5  5  1268.39
   6      1.44992128    -1.30320264  -306.46886084    -0.00000263    -0.00000003  0.18D-12  0.18D-07  6  6  1295.88
   7      1.44992409    -1.30320295  -306.46886115    -0.00000032    -0.00000000  0.42D-13  0.11D-08  6  1  1323.13

 Spin contamination <S**2-Sz**2-Sz>     0.00000000

 Norm of t1 vector:      0.00010434      S-energy:    -0.00000001      T1 diagnostic:  0.00001533
 Norm of t2 vector:      0.67076380      P-energy:    -1.30320295
                                         Alpha-Beta:  -0.98752292
                                         Alpha-Alpha: -0.15784001
                                         Beta-Beta:   -0.15784001

 MP2 energy of close+weak+distant pairs    -0.08610959

 Reference energy                    -305.165658198301
 Correlation energy                    -1.303202952264
 !RHF-LRMP2 STATE  1.1 Energy        -306.468861150566

 Starting LUCCSD calculation

 Reference energy:                   -305.16565820

 ITER.     SQ.NORM      CORR.ENERGY   TOTAL ENERGY   ENERGY CHANGE        DEN1      VAR(S)    VAR(P)  DIIS     TIME
   1      1.41749401    -1.20610320  -306.37176140    -1.20610320    -0.03723101  0.78D-02  0.78D-02  1  1  1759.33
   2      1.44355489    -1.22832834  -306.39398653    -0.02222514    -0.00375205  0.57D-03  0.12D-02  2  2  2191.56
   3      1.45469890    -1.23395335  -306.39961155    -0.00562501    -0.00127874  0.40D-03  0.38D-03  3  3  2621.34
   4      1.47414323    -1.24200482  -306.40766302    -0.00805147    -0.00070872  0.27D-03  0.20D-03  4  4  3042.57
   5      1.48108416    -1.24360412  -306.40926231    -0.00159929    -0.00018765  0.10D-03  0.45D-04  5  5  3475.29
   6      1.48678467    -1.24441616  -306.41007436    -0.00081205    -0.00008909  0.56D-04  0.19D-04  6  6  3893.71
   7      1.49265683    -1.24561762  -306.41127582    -0.00120146    -0.00003662  0.23D-04  0.74D-05  6  1  4322.28
   8      1.50087464    -1.24718842  -306.41284662    -0.00157079    -0.00000935  0.66D-05  0.17D-05  6  2  4744.95
   9      1.50049750    -1.24700102  -306.41265922     0.00018740    -0.00000259  0.87D-06  0.83D-06  6  3  5206.52
  10      1.49834264    -1.24668352  -306.41234172     0.00031750    -0.00000112  0.51D-06  0.30D-06  6  4  5630.32
  11      1.49879445    -1.24675989  -306.41241809    -0.00007637    -0.00000033  0.22D-06  0.60D-07  6  5  6047.01
  12      1.49855700    -1.24669050  -306.41234869     0.00006940    -0.00000027  0.13D-06  0.69D-07  6  6  6462.79
  13      1.49831121    -1.24658635  -306.41224454     0.00010415    -0.00000012  0.72D-07  0.24D-07  6  1  6869.07
  14      1.49861895    -1.24662403  -306.41228222    -0.00003768    -0.00000004  0.30D-07  0.66D-08  6  2  7292.71
  15      1.49866327    -1.24662361  -306.41228181     0.00000042    -0.00000001  0.44D-08  0.46D-09  6  3  7715.05

 Spin contamination <S**2-Sz**2-Sz>     0.00000000

 Norm of t1 vector:      0.18013145      S-energy:     0.00000077      T1 diagnostic:  0.03930002
 Norm of t2 vector:      0.68280007      P-energy:    -1.24662438
                                         Alpha-Beta:  -1.00080711
                                         Alpha-Alpha: -0.12290863
                                         Beta-Beta:   -0.12290863
 Total MP2 weak+close+distant pair     -0.024606728106


  RESULTS
  =======

  LUCCSD strong pair energy            -1.246624382029
  LMP2 close pair energy               -0.061502859257
  LMP2 weak pair energy                -0.024606728106


  Reference energy                   -305.165658198301

  LUCCSD correlation energy            -1.332733197600
 !LUCCSD total energy                -306.498391395902

 Program statistics:

 Available memory:                      1023999975
 Available memory in lrmp2:             1020300314
 Max. memory used in lrmp2:              165675224
 Min. memory needed in lrmp2:            118658470
 Available memory in luccsd:            1007660634
 Max. memory used in luccsd:             101790439
 Min. memory needed in luccsd:            93867453



 **********************************************************************************************************************************
 DATASETS  * FILE   NREC   LENGTH (MB)   RECORD NAMES
              1      19       55.63       500      610      700      900      950      970     1000      129      960     1100   
                                          VAR    BASINP    GEOM    SYMINP    ZMAT    AOBASIS   BASIS     P2S    ABASIS      S 
                                         1400     1410     1200     1210     1080     1600     1650     1700      960(1)
                                           T        V       H0       H01     AOSYM     SMH    MOLCAS    OPER    ABASIS    

              2       4       19.90       700     1000      520     2100   
                                         GEOM     BASIS   MCVARS     RHF  

 PROGRAMS   *        TOTAL DF-LUCCSD     DF-HF       INT
 CPU TIMES  *      7988.91   7715.66    272.07      1.03
 REAL TIME  *      8829.36 SEC
 DISK USED  *        86.62 GB
 **********************************************************************************************************************************

 DF-LUCCSD/aug-cc-pVQZ energy=   -306.498391395902

       DF-LUCCSD           DF-HF
   -306.49839140   -305.16565820
 **********************************************************************************************************************************
 Molpro calculation terminated
