
 Primary working directories    : /var/tmp/pbs.368080.bp1/molpro.2Qb5ai7wWn
 Secondary working directories  : /var/tmp/pbs.368080.bp1/molpro.2Qb5ai7wWn
 Wavefunction directory         : /home/lb17101/molpro_test/inp/lowmem/
 Main file repository           : /home/lb17101/molpro_test/inp/lowmem/

 id        : uob

 Nodes                         nprocs
 bp1-01-09-03.data.bp.acrc.priv    1

 Using customized tuning parameters: mindgm=1; mindgv=20; mindgc=4; mindgr=1; noblas=0; minvec=7
 default implementation of scratch files=df  


 Variables initialized (934), CPU time= 0.00 sec
 geomtyp=xyz
 nosym
 noorient
 geometry={
  C      -0.159941390761      -0.584754061485       0.964892138246
  C      -1.174115188035      -0.077894107893      -0.035360135659
  C      -0.561301406524       1.079756780368      -0.596981961318
  C       0.840269499806       0.973898141422      -0.474076696779
  C       1.149952155587      -0.175108077767       0.246266353438
  H      -0.259426870368      -1.617504438839       1.302360582316
  H      -0.333438996936       0.007293456914       1.963522322498
  H      -0.476676701598      -1.183603229361      -0.787251768618
  H      -2.229728215254      -0.294281647204       0.075760514576
  H      -1.072829432227       1.773561501763      -1.190929257753
  H       1.721761079706       1.689784394704      -0.660086322382
  H       0.439683447043      -1.265838114735      -0.868662391474
  H       2.127742218990      -0.502360735672       0.536593844603
 }
 basis=avqz
 local,thrbp=0.99
 df-hf
 df-luccsd
 Commands  initialized (763), CPU time= 0.01 sec, 617 directives.
 Default parameters read. Elapsed time= 0.07 sec

 Checking input...
 Passed
1


                                         ***  PROGRAM SYSTEM MOLPRO  ***
                                       Copyright, TTI GmbH Stuttgart, 2015
                                    Version 2019.2 linked Oct 25 2019 22:50:27


 **********************************************************************************************************************************
 LABEL *                                                                                 
  64 bit serial version                                                                  DATE: 22-Sep-20          TIME: 19:38:48  
 **********************************************************************************************************************************

 SHA1:             8dbd9ae1082e4ce945b0f27595c9eb2d4aa09004
 **********************************************************************************************************************************
 SETTING GEOMTYP        =    XYZ

 Variable memory set to 1024000000 words,  buffer space 

 ZSYMEL=NOSYM

 SETTING BASIS          =    AVQZ


 Recomputing integrals since basis changed


 Using spherical harmonics

 Library entry C      S aug-cc-pVQZ          selected for orbital group  1
 Library entry C      P aug-cc-pVQZ          selected for orbital group  1
 Library entry C      D aug-cc-pVQZ          selected for orbital group  1
 Library entry C      F aug-cc-pVQZ          selected for orbital group  1
 Library entry C      G aug-cc-pVQZ          selected for orbital group  1
 Library entry H      S aug-cc-pVQZ          selected for orbital group  2
 Library entry H      P aug-cc-pVQZ          selected for orbital group  2
 Library entry H      D aug-cc-pVQZ          selected for orbital group  2
 Library entry H      F aug-cc-pVQZ          selected for orbital group  2


 PROGRAM * SEWARD (Integral evaluation for generally contracted gaussian basis sets)     Author: Roland Lindh, 1990

 Geometry written to block  1 of record 700


 Point group  C1  



 ATOMIC COORDINATES

 NR  ATOM    CHARGE       X              Y              Z

   1  C       6.00   -0.302245425   -1.105025026    1.823381881
   2  C       6.00   -2.218756144   -0.147198531   -0.066820972
   3  C       6.00   -1.060705932    2.040444596   -1.128132408
   4  C       6.00    1.587879225    1.840400761   -0.895875119
   5  C       6.00    2.173094630   -0.330906309    0.465375962
   6  H       1.00   -0.490245734   -3.056640395    2.461104816
   7  H       1.00   -0.630108383    0.013782636    3.710519429
   8  H       1.00   -0.900788416   -2.236685944   -1.487690234
   9  H       1.00   -4.213575659   -0.556111717    0.143166624
  10  H       1.00   -2.027353805    3.351545503   -2.250530131
  11  H       1.00    3.253656893    3.193229716   -1.247382368
  12  H       1.00    0.830881296   -2.392087355   -1.641534015
  13  H       1.00    4.020850058   -0.949324206    1.014015406

 Bond lengths in Bohr (Angstrom)

 1-2  2.857150987  1-5  2.927584030  1-6  2.061755855  1-7  2.218222899  2-3  2.693184863
     ( 1.511939190)     ( 1.549210752)     ( 1.091034213)     ( 1.173833007)     ( 1.425172055)

  2- 9  2.047097868   3- 4  2.666264113   3-10  1.978173488   4- 5  2.628698531   4-11  2.174515754
       ( 1.083277540)       ( 1.410926207)       ( 1.046804329)       ( 1.391047357)       ( 1.150704182)

  5-13  2.024264324
       ( 1.071194549)

 Bond angles

  1- 2- 3  104.15745881   1- 2- 9  121.25309154   1- 5- 4  105.68731553   1- 5-13  124.42260450

  2-1-5   99.88281297   2-1-6  117.43845099   2-1-7  107.13337404   2-3-4  109.38231512

  2- 3-10  123.49375041   3- 2- 9  128.43978701   3- 4- 5  109.16146537   3- 4-11  134.44368760

  4- 3-10  125.77255251   4- 5-13  126.57754946   5- 1- 6  118.09104387   5- 1- 7  112.72046190

  5- 4-11  115.28024300   6- 1- 7  101.58409563

 NUCLEAR CHARGE:                   38
 NUMBER OF PRIMITIVE AOS:        1046
 NUMBER OF SYMMETRY AOS:          849
 NUMBER OF CONTRACTIONS:          768   (  768A   )
 NUMBER OF CORE ORBITALS:           5   (    5A   )
 NUMBER OF VALENCE ORBITALS:       28   (   28A   )


 NUCLEAR REPULSION ENERGY  173.31919358


 Eigenvalues of metric

         1 0.396E-06 0.979E-06 0.126E-05 0.147E-05 0.195E-05 0.202E-05 0.224E-05 0.267E-05


 OPERATOR DM      FOR CENTER  0  COORDINATES:    0.000000    0.000000    0.000000


 **********************************************************************************************************************************
 DATASETS  * FILE   NREC   LENGTH (MB)   RECORD NAMES
              1      18       51.66       500      610      700      900      950      970     1000      129      960     1100   
                                          VAR    BASINP    GEOM    SYMINP    ZMAT    AOBASIS   BASIS     P2S    ABASIS      S 
                                         1400     1410     1200     1210     1080     1600     1650     1700   
                                           T        V       H0       H01     AOSYM     SMH    MOLCAS    OPER   

 PROGRAMS   *        TOTAL       INT
 CPU TIMES  *         0.90      0.79
 REAL TIME  *         1.83 SEC
 DISK USED  *        52.38 MB
 **********************************************************************************************************************************


 PROGRAM * RHF-SCF (CLOSED SHELL)       Authors: W. Meyer, H.-J. Werner


 NUMBER OF ELECTRONS:      19+   19-    SPACE SYMMETRY=1    SPIN SYMMETRY: Singlet 
 CONVERGENCE THRESHOLDS:    1.00E-05 (Density)    1.00E-07 (Energy)
 INTEGRAL THRESHOLDS:       1.00E-13 (Initial)    1.00E-13 (Final)
 MAX. NUMBER OF ITERATIONS:       60
 INTERPOLATION TYPE:            DIIS
 INTERPOLATION STEPS:              2 (START)      1 (STEP)
 LEVEL SHIFTS:                  0.00 (CLOSED)  0.00 (OPEN) 




 Basis set AUG-CC-PVQZ/JKFIT generated.  Number of basis functions:   1318 

 Orbital guess generated from atomic densities. Full valence occupancy:   33
 Using density fitting in orbital guess

 Coulomb and exchange fitting
 Thresholds for fitting:       THRAO_COUL= 1.0D-16    THRAO_EXCH= 1.0D-14    THRMO= 1.0D-13    THRPROD= 1.0D-13    THRASM= 1.0D-13
                               THR2HLF=    1.0D-13

 Molecular orbital dump at record        2100.2

 Initial occupancy:  19

 ITERATION   DDIFF            GRAD            ENERGY        2-EL.EN.            DIPOLE MOMENTS         DIIS   CPU(IT)  CPU(TOT)  ORB.
    1      0.000D+00      0.000D+00      -193.83219486    475.756644   -0.02683   -0.38826    0.33829    0     13.4     27.9     start
    2      0.000D+00      0.169D-02      -193.88508872    470.579989   -0.01315    0.36873    0.33496    1     13.2     41.0     diag
    3      0.167D-02      0.811D-03      -193.89477219    473.223477   -0.03174    0.04794    0.32653    2     13.1     54.1     diag
    4      0.608D-03      0.246D-03      -193.89626689    472.730624   -0.02250    0.14615    0.32287    3     12.9     67.0     diag
    5      0.291D-03      0.413D-04      -193.89632089    472.676599   -0.02722    0.13034    0.32766    4     13.0     80.0     diag
    6      0.504D-04      0.202D-04      -193.89633471    472.698595   -0.02384    0.13834    0.32596    5     13.0     93.1     diag
    7      0.208D-04      0.714D-05      -193.89633848    472.697099   -0.02422    0.13714    0.32643    6     13.3    106.4     diag
    8      0.120D-04      0.257D-05      -193.89633911    472.697002   -0.02310    0.13759    0.32690    7     13.1    119.5     diag
    9      0.507D-05      0.129D-05      -193.89633919    472.697115   -0.02358    0.13777    0.32683    8     13.0    132.5     diag
   10      0.183D-05      0.398D-06      -193.89633920    472.697062   -0.02333    0.13770    0.32688    0     13.3    145.8     orth

 Final occupancy:  19

 !RHF STATE  1.1 Energy              -193.896339197947
 Nuclear energy                       173.31919358
 One-electron energy                 -603.56406358
 Two-electron energy                  236.34853080
 Virial quotient                       -1.00219614
 !RHF STATE  1.1 Dipole moment         -0.02333072     0.13769855     0.32688493
 Dipole moment /Debye                  -0.05929689     0.34997188     0.83080419

 Orbital energies:

         1.1          2.1          3.1          4.1          5.1          6.1          7.1          8.1          9.1         10.1
    -11.251987   -11.250053   -11.244352   -11.240295   -11.234302    -1.160730    -0.967603    -0.954266    -0.769930    -0.731201

        11.1         12.1         13.1         14.1         15.1         16.1         17.1         18.1         19.1         20.1
     -0.701484    -0.654022    -0.551640    -0.548916    -0.527548    -0.493422    -0.463783    -0.362217    -0.325750     0.026862

        21.1
      0.030253


 HOMO     19.1    -0.325750 =      -8.8641eV
 LUMO     20.1     0.026862 =       0.7310eV
 LUMO-HOMO         0.352612 =       9.5951eV


 **********************************************************************************************************************************
 DATASETS  * FILE   NREC   LENGTH (MB)   RECORD NAMES
              1      18       51.66       500      610      700      900      950      970     1000      129      960     1100   
                                          VAR    BASINP    GEOM    SYMINP    ZMAT    AOBASIS   BASIS     P2S    ABASIS      S 
                                         1400     1410     1200     1210     1080     1600     1650     1700   
                                           T        V       H0       H01     AOSYM     SMH    MOLCAS    OPER   

              2       4       17.26       700     1000      520     2100   
                                         GEOM     BASIS   MCVARS     RHF  

 PROGRAMS   *        TOTAL     DF-HF       INT
 CPU TIMES  *       146.88    145.97      0.79
 REAL TIME  *       152.28 SEC
 DISK USED  *       336.49 MB
 **********************************************************************************************************************************


 Input parameters for LOCAL:

 LOCAL  =    5.000000
 THRLOC =   -1.000000

 PROGRAM * CCSD (Unrestricted open-shell coupled cluster)     Authors: C. Hampel, H.-J. Werner, 1991, M. Deegan, P.J. Knowles, 1992

                    Density fitting coupled cluster methods (ITF), W. Gyorffy, 2015

                              Local implementation by Y. Liu and H.-J. Werner, 2009


 Setting use_dist= 1

 Basis set AUG-CC-PVQZ/MP2FIT generated. Number of basis functions:   1480 

 Convergence thresholds:  THRVAR = 1.00D-08  THRDEN = 1.00D-06

 Number of core orbitals:           5 (   5 )
 Number of closed-shell orbitals:  14 (  14 )
 Number of external orbitals:     749 ( 749 )

 Options for lccsd:

   local=       4
   iopdom=      5
   isdom=       2
   i3ext=       3
   i4ext=       1

 Using operators K(Cij)  

 icfit_3ext= 2  icfit_4ext= 2
 locfit_ccsd= 0  locfit_2ext= 0  locfit_3ext= 0  locfit_4ext= 0  locfit=-1

 Molecular orbitals read from record     2100.2  Type=RHF/CANONICAL (state 1.1)

 Local correlation treatment
 ===========================

 LOCAL=5  IBASO=0  NONORM=0  IDLCOR=2  KEEPCORE=0  SKIPD=3  LOCSNG= 0  LOCMUL=0  CANBLK=0  SHELLPERM=F

 Thresholds:

 THRLOC=  1.00D-06 (Smallest allowed eigenvalue in domain redundancy check)
 THRGAP=  1.00D-06 (Minimum eigenvalue gap in domain redundancy check)
 THRLOCT= 1.00D-06 (Smallest allowed eigenvalue in domain redundancy check of triples)
 THRGAPT= 1.00D-06 (Minimum eigenvalue gap in domain redundancy check of triples)
 THRORB=  1.00D-06 (Norm of projected orbitals)
 THRMP2=  1.00D-08 (Neglect of small Fock matrix elements)

 Orbital domain selection criteria:

 CHGFRAC=  0.990   CHGMIN=   0.010   CHGMINH=  0.030   CHGMAX=  0.500   CHGMIN_PAIRS=  0.200    MERGEDOM=0   CANBLK=0

 Weak and distant pair selection criteria:

 RCLOSE= 1.000   RWEAK= 3.000   RDIST= 8.000   RVDIST=15.000   KEEPCLS=0   KEEPCLS_3EXT=0   MP4CLS=0

 Options for approximating pair-single interactions:   JEDOM= 0   RMAX3X= 0.000   SKIPGE=0


 Pipek-Mezey localisation finished (npass= 21  nrot=   1763  Thresh=  0.10D-08  CPU=   0.01 sec)

 Ordering localized MOs according to charge centroids

 Generating projected atomic orbitals

 Deleting projected core orbital    1.1 (C 1s)    Norm=  0.10D-02
 Deleting projected core orbital   81.1 (C 1s)    Norm=  0.10D-02
 Deleting projected core orbital  161.1 (C 1s)    Norm=  0.12D-02
 Deleting projected core orbital  241.1 (C 1s)    Norm=  0.11D-02
 Deleting projected core orbital  321.1 (C 1s)    Norm=  0.11D-02

 Ranking of atoms according to Loewdin charges

 Orbital domains

   Orb.   Atom     Charge      Crit.
   6.1    2 C       0.84       0.000
          9 H       0.70       0.997
   7.1    3 C       0.87       0.000
         10 H       0.73       0.997
   8.1    3 C       0.68       0.000
          2 C       0.66       0.994
   9.1    2 C       0.61       0.000
          1 C       0.59       0.995
  10.1    2 C       0.55       0.000
          3 C       0.52       0.956
          4 C       0.18       0.987
          1 C       0.14       0.993
  11.1    1 C       0.77       0.000
          7 H       0.61       0.990
  12.1    1 C       0.79       0.000
          6 H       0.64       0.998
  13.1   12 H       0.57       0.000
          8 H       0.54       0.934
          2 C       0.21       0.975
          5 C       0.19       0.987
          1 C       0.15       0.992
  14.1    4 C       0.70       0.000
          3 C       0.68       0.997
  15.1    5 C       0.62       0.000
          1 C       0.59       0.996
  16.1    4 C       0.59       0.000
          5 C       0.52       0.959
          3 C       0.23       0.987
          1 C       0.13       0.995
  17.1    4 C       0.69       0.000
          5 C       0.68       0.996
  18.1    4 C       0.84       0.000
         11 H       0.71       0.996
  19.1    5 C       0.86       0.000
         13 H       0.71       0.997

 Number of strong pairs:          63
 Number of close pairs:           29     Rmin=      2.629
 Number of weak pairs:            13     Rmin=      4.315

 Average pair domain sizes:      288    (strong pairs: 282, close pairs: 310, weak pairs: 265, distant pairs:   0)
 Number of redundant orbitals:     1

 Largest S-eigenvalue of redundant functions:  0.8219D-06   Pair:  20  Symmetry: 1
 Smallest S-eigenvalue of domains              0.1123D-05   Pair:  58  Symmetry: 1

 United MP2 domains:        min= 763  max= 763  average= 763
 United LUCCSD domains:     min= 441  max= 763  average= 655

 Number of correlated orbitals in LUCCSD:  14
 Total United LUCCSD domain size:         763

 CPU-time for pair domains:             3.68 SEC

 Distance criteria for operator lists:     RMAXJ=      8.00  RMAXK=      8.00  RMAXL=     15.00
 Distance criteria for operator domains:   RDOMJ=      0.00  RDOMK=      8.00

 Using operator domains:    iopdom=5   sdom=2  kextyp=0   triptyp=2

 Number of orbital pairs:        105
 Length of K(kl) list:           105
 Number of operators K(kl):      105 (417.66 MB)   Domain sizes:    min= 487  max= 763  average= 719
 Number of operators J(kl):      105 (222.83 MB)   Domain sizes:    min= 362  max= 717  average= 522
 Number of y,z intermediates:    196
 Number of operators J/K(E):     196 (614.00 MB)   Domain sizes:    min= 362  max= 717  average= 522


 File size for 4-external integrals using center quadruplets:  174.020 GB

 File limit (100.0 GB) exceeded. Switching to CFIT_D4EXT=1

 Number of N-1 electron functions:              28
 Number of N-2 electron functions:             378
 Number of singly external CSFs:              5002
 Number of doubly external CSFs:          27317845
 Total number of CSFs:                    27322847

 Number of correlated orbitals:                 14
 Number of weak pair functions:                 13  (treated by MP2)
 Number of strong pair functions:               63
 Total number of pair functions:               105
 Number of singly external local CSFs:        2501
 Number of doubly external local CSFs:     9204184 (all pairs)   8286150 (strong pairs)    918034 (weak pairs)
 Total number of local CSFs:               9206686 (all pairs)   8288652 (strong pairs)

 Using 3-external integrals

 File size for 3-external integrals using MO/center triples:    23.591 GB

 AO-basis loaded. Number of functions:                 768

 Fitting-basis AUG-CC-PVQZ-MP2F loaded for 0-2-external integrals.

 Number of fitting functions:                     1480
 CPU time for 2-ext exchange integrals           14.59 sec, Elapsed time=     15.67 sec

 Using incore algorithm in dfasmbl_coul, locfit=0

 CPU time for 2-ext Coulomb integrals            18.21 sec, Elapsed time=     18.93 sec
 CPU time for DF-2ext transformation (total)     32.80 sec, Elapsed time=     34.60 sec
 Local fitting disabled for 3-ext integrals

 Fitting-basis AUG-CC-PVQZ-MP2F loaded for 3-external integrals.

 Number of fitting functions:                     1480
 CPU time for DF-3ext transformations           358.16 sec, Elapsed time=    533.84 sec (including assembly of 3ext integrals)

 4-ext integrals assembled on-the-fly

 Fitting-basis AUG-CC-PVQZ-MP2F loaded for 4-external integrals.

 Number of fitting functions:                     1480
 CPU time for DF-4ext transformations           107.78 sec, Elapsed time=    119.15 sec

 Reference energy:                   -193.89633920

 ITER.     SQ.NORM      CORR.ENERGY   TOTAL ENERGY   ENERGY CHANGE        DEN1      VAR(S)    VAR(P)  DIIS     TIME
   1      1.30937251    -0.92021256  -194.81655176    -0.92021256    -0.00827476  0.11D-09  0.37D-02  1  1   522.31
   2      1.31785915    -0.92939219  -194.82573139    -0.00917963    -0.00030698  0.12D-10  0.16D-03  2  2   536.86
   3      1.31743173    -0.92864245  -194.82498165     0.00074974    -0.00004432  0.10D-11  0.25D-04  3  3   551.64
   4      1.31756368    -0.92873105  -194.82507025    -0.00008860    -0.00000150  0.22D-12  0.94D-06  4  4   566.39
   5      1.31759599    -0.92875681  -194.82509601    -0.00002577    -0.00000007  0.39D-13  0.45D-07  5  5   581.47
   6      1.31759882    -0.92875736  -194.82509656    -0.00000055    -0.00000001  0.63D-14  0.33D-08  6  6   596.70

 Spin contamination <S**2-Sz**2-Sz>     0.00000000

 Norm of t1 vector:      0.00005302      S-energy:    -0.00000000      T1 diagnostic:  0.00001367
 Norm of t2 vector:      0.56355906      P-energy:    -0.92875736
                                         Alpha-Beta:  -0.70802183
                                         Alpha-Alpha: -0.11036777
                                         Beta-Beta:   -0.11036777

 MP2 energy of close+weak+distant pairs    -0.04656172

 Reference energy                    -193.896339197947
 Correlation energy                    -0.928757364145
 !RHF-LRMP2 STATE  1.1 Energy        -194.825096562092

 Starting LUCCSD calculation

 Reference energy:                   -193.89633920

 ITER.     SQ.NORM      CORR.ENERGY   TOTAL ENERGY   ENERGY CHANGE        DEN1      VAR(S)    VAR(P)  DIIS     TIME
   1      1.30234874    -0.88243199  -194.77877119    -0.88243199    -0.02202250  0.27D-02  0.54D-02  1  1  3231.60
   2      1.31735112    -0.89706293  -194.79340212    -0.01463093    -0.00184068  0.99D-04  0.65D-03  2  2  5877.17
   3      1.32499472    -0.90209994  -194.79843913    -0.00503701    -0.00047699  0.54D-04  0.18D-03  3  3  8515.76
   4      1.33080561    -0.90529226  -194.80163146    -0.00319232    -0.00013872  0.19D-04  0.58D-04  4  4 11167.94
   5      1.33373552    -0.90638202  -194.80272121    -0.00108976    -0.00002532  0.53D-05  0.12D-04  5  5 13800.02
   6      1.33382685    -0.90622961  -194.80256880     0.00015241    -0.00000331  0.10D-05  0.14D-05  6  6 16470.32
   7      1.33412111    -0.90626660  -194.80260580    -0.00003700    -0.00000131  0.51D-06  0.53D-06  6  1 19163.77
   8      1.33453591    -0.90636931  -194.80270851    -0.00010271    -0.00000037  0.20D-06  0.13D-06  6  2 21809.90
   9      1.33448161    -0.90633039  -194.80266959     0.00003892    -0.00000007  0.26D-07  0.24D-07  6  3 24475.66
  10      1.33439565    -0.90630137  -194.80264057     0.00002902    -0.00000003  0.82D-08  0.11D-07  6  6 27112.19
  11      1.33440087    -0.90630467  -194.80264387    -0.00000330    -0.00000000  0.32D-08  0.96D-09  6  5 29782.10
  12      1.33440970    -0.90630757  -194.80264677    -0.00000290    -0.00000000  0.75D-09  0.25D-09  6  4 32456.32
  13      1.33440518    -0.90630608  -194.80264528     0.00000149    -0.00000000  0.23D-09  0.19D-09  6  1 34872.08
  14      1.33440178    -0.90630465  -194.80264385     0.00000143    -0.00000000  0.40D-10  0.37D-10  6  6 37320.29
  15      1.33440035    -0.90630420  -194.80264340     0.00000045    -0.00000000  0.11D-10  0.63D-11  6  2 39771.07

 Spin contamination <S**2-Sz**2-Sz>     0.00000000

 Norm of t1 vector:      0.07334349      S-energy:    -0.00000031      T1 diagnostic:  0.02460732
 Norm of t2 vector:      0.57360359      P-energy:    -0.90630390
                                         Alpha-Beta:  -0.72544026
                                         Alpha-Alpha: -0.09043182
                                         Beta-Beta:   -0.09043182
 Total MP2 weak+close+distant pair     -0.005204901322


  RESULTS
  =======

  LUCCSD strong pair energy            -0.906303895717
  LMP2 close pair energy               -0.041356813942
  LMP2 weak pair energy                -0.005204901322


  Reference energy                   -193.896339197947

  LUCCSD correlation energy            -0.952865916388
 !LUCCSD total energy                -194.849205114335

 Program statistics:

 Available memory:                      1023999981
 Available memory in lrmp2:             1020887779
 Max. memory used in lrmp2:              127175093
 Min. memory needed in lrmp2:             91477205
 Available memory in luccsd:            1010125139
 Max. memory used in luccsd:             145849897
 Min. memory needed in luccsd:           125568989



 **********************************************************************************************************************************
 DATASETS  * FILE   NREC   LENGTH (MB)   RECORD NAMES
              1      19       51.66       500      610      700      900      950      970     1000      129      960     1100   
                                          VAR    BASINP    GEOM    SYMINP    ZMAT    AOBASIS   BASIS     P2S    ABASIS      S 
                                         1400     1410     1200     1210     1080     1600     1650     1700      960(1)
                                           T        V       H0       H01     AOSYM     SMH    MOLCAS    OPER    ABASIS    

              2       4       17.26       700     1000      520     2100   
                                         GEOM     BASIS   MCVARS     RHF  

 PROGRAMS   *        TOTAL DF-LUCCSD     DF-HF       INT
 CPU TIMES  *     39919.32  39772.42    145.97      0.79
 REAL TIME  *     47893.96 SEC
 DISK USED  *        56.75 GB
 **********************************************************************************************************************************

 DF-LUCCSD/aug-cc-pVQZ energy=   -194.849205114335

       DF-LUCCSD           DF-HF
   -194.84920511   -193.89633920
 **********************************************************************************************************************************
 Molpro calculation terminated
