
 Primary working directories    : /var/tmp/pbs.368110.bp1/molpro.NKUgRxTXQ8
 Secondary working directories  : /var/tmp/pbs.368110.bp1/molpro.NKUgRxTXQ8
 Wavefunction directory         : /home/lb17101/molpro_test/inp/lowmem/
 Main file repository           : /home/lb17101/molpro_test/inp/lowmem/

 id        : uob

 Nodes                         nprocs
 bp1-11-04-02.data.bp.acrc.priv    1

 Using customized tuning parameters: mindgm=1; mindgv=20; mindgc=4; mindgr=1; noblas=0; minvec=7
 default implementation of scratch files=df  


 Variables initialized (934), CPU time= 0.00 sec
 geomtyp=xyz
 nosym
 noorient
 geometry={
  O       1.106850818428      -0.020909951478      -1.416364276671
  C       0.252976522451       0.002786426452      -0.381435479862
  C      -0.921063700326      -0.865486591235      -0.508711486525
  O      -1.942890398989       0.182648253159      -0.066211307997
  C      -0.918868157390       0.957039984964      -0.101618184414
  C       0.839016423145      -0.405928160309       0.953262762307
  O       1.115131043534       0.476015717298       1.812539518561
  H       1.998631136532       0.305719152493      -0.967504793519
  H      -0.906072075707      -1.808333168173      -0.257563357602
  H      -1.420859573160      -0.926895317139      -1.677097698575
  H      -0.859131748037       1.976014794762      -0.663466034770
  H       0.521651095536       1.111264626204       1.368594209763
  H       1.576036876830      -1.299849898618       0.752180004756
 }
 basis=avtz
 local,thrbp=0.985
 df-hf
 df-luccsd(t)
 Commands  initialized (763), CPU time= 0.00 sec, 617 directives.
 Default parameters read. Elapsed time= 0.06 sec

 Checking input...
 Passed
1


                                         ***  PROGRAM SYSTEM MOLPRO  ***
                                       Copyright, TTI GmbH Stuttgart, 2015
                                    Version 2019.2 linked Oct 25 2019 22:50:27


 **********************************************************************************************************************************
 LABEL *                                                                                 
  64 bit serial version                                                                  DATE: 22-Sep-20          TIME: 20:01:22  
 **********************************************************************************************************************************

 SHA1:             8dbd9ae1082e4ce945b0f27595c9eb2d4aa09004
 **********************************************************************************************************************************
 SETTING GEOMTYP        =    XYZ

 Variable memory set to 1024000000 words,  buffer space 

 ZSYMEL=NOSYM

 SETTING BASIS          =    AVTZ


 Recomputing integrals since basis changed


 Using spherical harmonics

 Library entry O      S aug-cc-pVTZ          selected for orbital group  1
 Library entry O      P aug-cc-pVTZ          selected for orbital group  1
 Library entry O      D aug-cc-pVTZ          selected for orbital group  1
 Library entry O      F aug-cc-pVTZ          selected for orbital group  1
 Library entry C      S aug-cc-pVTZ          selected for orbital group  2
 Library entry C      P aug-cc-pVTZ          selected for orbital group  2
 Library entry C      D aug-cc-pVTZ          selected for orbital group  2
 Library entry C      F aug-cc-pVTZ          selected for orbital group  2
 Library entry H      S aug-cc-pVTZ          selected for orbital group  6
 Library entry H      P aug-cc-pVTZ          selected for orbital group  6
 Library entry H      D aug-cc-pVTZ          selected for orbital group  6


 PROGRAM * SEWARD (Integral evaluation for generally contracted gaussian basis sets)     Author: Roland Lindh, 1990

 Geometry written to block  1 of record 700


 Point group  C1  



 ATOMIC COORDINATES

 NR  ATOM    CHARGE       X              Y              Z

   1  O       8.00    2.091644908   -0.039514082   -2.676540576
   2  C       6.00    0.478056343    0.005265583   -0.720808591
   3  C       6.00   -1.740558137   -1.635532622   -0.961325386
   4  O       8.00   -3.671530744    0.345155176   -0.125121238
   5  C       6.00   -1.736409162    1.808543462   -0.192030538
   6  C       6.00    1.585511254   -0.767093049    1.801405546
   7  O       8.00    2.107292265    0.899539337    3.425203280
   8  H       1.00    3.776865472    0.577725469   -1.828319084
   9  H       1.00   -1.712228072   -3.417254430   -0.486724206
  10  H       1.00   -2.685035455   -1.751578296   -3.169255334
  11  H       1.00   -1.623523709    3.734126780   -1.253769099
  12  H       1.00    0.985777703    2.099985795    2.586268232
  13  H       1.00    2.978278059   -2.456360311    1.421414205

 Bond lengths in Bohr (Angstrom)

 1-2  2.535855057  1-8  1.985052320  2-3  2.769894816  2-5  2.904354457  2-6  2.860866719
     ( 1.341916706)     ( 1.050444450)     ( 1.465765213)     ( 1.536918191)     ( 1.513905471)

  3- 4  2.889812578   3- 5  3.528950531   3- 9  1.844066559   3-10  2.404258443   4- 5  2.427071830
       ( 1.529222960)       ( 1.867440199)       ( 0.975837998)       ( 1.272278777)       ( 1.284351102)

  5-11  2.201795407   6- 7  2.384667276   6-13  2.222119861   7-12  1.844635093
       ( 1.165139952)       ( 1.261911578)       ( 1.175895190)       ( 0.976138854)

 Bond angles

  1-2-3  115.60974641   1-2-5  129.53433232   1-2-6  115.39473710   2-1-8  101.83867384

  2- 3- 4   95.97378769   2- 3- 5   53.27376564   2- 3- 9  122.52641955   2- 3-10  115.02314925

  2- 5- 3   49.85325951   2- 5- 4  103.80254235   2- 5-11  114.58942469   2- 6- 7  119.75852104

  2- 6-13  107.28356466   3- 2- 5   76.87297485   3- 2- 6  103.10232190   3- 4- 5   82.67613433

  3- 5- 4   54.31205602   3- 5-11  138.45692423   4- 3- 5   43.01180965   4- 3- 9  126.72853221

  4- 3-10   92.08164235   4- 5-11  125.55448514   5- 2- 6  107.59366141   5- 3- 9  152.47770968

  5- 3-10  104.34511085   6- 7-12   90.69370145   7- 6-13  120.70404892   9- 3-10  101.28857265

 NUCLEAR CHARGE:                   54
 NUMBER OF PRIMITIVE AOS:         631
 NUMBER OF SYMMETRY AOS:          556
 NUMBER OF CONTRACTIONS:          460   (  460A   )
 NUMBER OF CORE ORBITALS:           7   (    7A   )
 NUMBER OF VALENCE ORBITALS:       34   (   34A   )


 NUCLEAR REPULSION ENERGY  318.60324172


 Eigenvalues of metric

         1 0.457E-05 0.911E-05 0.122E-04 0.166E-04 0.178E-04 0.221E-04 0.258E-04 0.387E-04


 OPERATOR DM      FOR CENTER  0  COORDINATES:    0.000000    0.000000    0.000000


 **********************************************************************************************************************************
 DATASETS  * FILE   NREC   LENGTH (MB)   RECORD NAMES
              1      18       37.94       500      610      700      900      950      970     1000      129      960     1100   
                                          VAR    BASINP    GEOM    SYMINP    ZMAT    AOBASIS   BASIS     P2S    ABASIS      S 
                                         1400     1410     1200     1210     1080     1600     1650     1700   
                                           T        V       H0       H01     AOSYM     SMH    MOLCAS    OPER   

 PROGRAMS   *        TOTAL       INT
 CPU TIMES  *         0.55      0.43
 REAL TIME  *         1.05 SEC
 DISK USED  *        38.55 MB
 **********************************************************************************************************************************


 PROGRAM * RHF-SCF (CLOSED SHELL)       Authors: W. Meyer, H.-J. Werner


 NUMBER OF ELECTRONS:      27+   27-    SPACE SYMMETRY=1    SPIN SYMMETRY: Singlet 
 CONVERGENCE THRESHOLDS:    1.00E-05 (Density)    1.00E-07 (Energy)
 INTEGRAL THRESHOLDS:       1.00E-12 (Initial)    1.00E-12 (Final)
 MAX. NUMBER OF ITERATIONS:       60
 INTERPOLATION TYPE:            DIIS
 INTERPOLATION STEPS:              2 (START)      1 (STEP)
 LEVEL SHIFTS:                  0.00 (CLOSED)  0.00 (OPEN) 




 Basis set AUG-CC-PVTZ/JKFIT generated.  Number of basis functions:   1004 

 Orbital guess generated from atomic densities. Full valence occupancy:   41
 Using density fitting in orbital guess

 Coulomb and exchange fitting
 Thresholds for fitting:       THRAO_COUL= 1.0D-15    THRAO_EXCH= 1.0D-13    THRMO= 1.0D-12    THRPROD= 1.0D-12    THRASM= 1.0D-12
                               THR2HLF=    1.0D-12

 Molecular orbital dump at record        2100.2

 Initial occupancy:  27

 ITERATION   DDIFF            GRAD            ENERGY        2-EL.EN.            DIPOLE MOMENTS         DIIS   CPU(IT)  CPU(TOT)  ORB.
    1      0.000D+00      0.000D+00      -379.21165610    905.895578    1.25604   -0.48505   -0.03161    0      4.1      8.7     start
    2      0.000D+00      0.290D-02      -379.28752346    904.479445    0.53977   -0.11650   -0.44841    1      4.0     12.7     diag
    3      0.378D-02      0.166D-02      -379.31088634    905.279502    1.01118   -0.54254   -0.11129    2      3.9     16.6     diag
    4      0.147D-02      0.515D-03      -379.31409748    905.029464    0.78871   -0.33428   -0.25658    3      3.9     20.5     diag
    5      0.648D-03      0.204D-03      -379.31472052    905.041637    0.92474   -0.46012   -0.19866    4      3.8     24.2     diag
    6      0.274D-03      0.967D-04      -379.31489810    905.010415    0.89699   -0.44125   -0.21549    5      3.8     28.0     diag
    7      0.127D-03      0.279D-04      -379.31494837    905.004329    0.91114   -0.45430   -0.21455    6      3.7     31.7     diag
    8      0.805D-04      0.178D-04      -379.31496427    904.991993    0.91974   -0.46116   -0.21414    7      3.8     35.5     diag
    9      0.399D-04      0.128D-04      -379.31497333    904.991839    0.92773   -0.46917   -0.21007    8      3.7     39.2     diag
   10      0.352D-04      0.100D-04      -379.31497950    904.990429    0.93655   -0.47627   -0.20628    9      3.7     42.9     orth
   11      0.355D-04      0.623D-05      -379.31498262    904.986718    0.94474   -0.48282   -0.20098    9      3.7     46.5     diag
   12      0.326D-04      0.297D-05      -379.31498330    904.988004    0.94915   -0.48646   -0.19823    9      3.5     50.0     diag
   13      0.179D-04      0.100D-05      -379.31498336    904.987513    0.95040   -0.48718   -0.19719    9      3.4     53.4     diag
   14      0.491D-05      0.358D-06      -379.31498337    904.987377    0.95033   -0.48712   -0.19723    0      3.7     57.1     orth

 Final occupancy:  27

 !RHF STATE  1.1 Energy              -379.314983366464
 Nuclear energy                       318.60324172
 One-electron energy                -1150.41191336
 Two-electron energy                  452.49368827
 Virial quotient                       -1.00047325
 !RHF STATE  1.1 Dipole moment          0.95032715    -0.48712485    -0.19722550
 Dipole moment /Debye                   2.41533249    -1.23806676    -0.50126438

 Orbital energies:

         1.1          2.1          3.1          4.1          5.1          6.1          7.1          8.1          9.1         10.1
    -20.634684   -20.609229   -20.594406   -11.357879   -11.320025   -11.313597   -11.294482    -1.498522    -1.455080    -1.413662

        11.1         12.1         13.1         14.1         15.1         16.1         17.1         18.1         19.1         20.1
     -1.080461    -0.928446    -0.905197    -0.799633    -0.764046    -0.719519    -0.710589    -0.683528    -0.646062    -0.628303

        21.1         22.1         23.1         24.1         25.1         26.1         27.1         28.1         29.1
     -0.609996    -0.581855    -0.545809    -0.501024    -0.475867    -0.418129    -0.222241     0.012980     0.023680


 HOMO     27.1    -0.222241 =      -6.0475eV
 LUMO     28.1     0.012980 =       0.3532eV
 LUMO-HOMO         0.235221 =       6.4007eV


 **********************************************************************************************************************************
 DATASETS  * FILE   NREC   LENGTH (MB)   RECORD NAMES
              1      18       37.94       500      610      700      900      950      970     1000      129      960     1100   
                                          VAR    BASINP    GEOM    SYMINP    ZMAT    AOBASIS   BASIS     P2S    ABASIS      S 
                                         1400     1410     1200     1210     1080     1600     1650     1700   
                                           T        V       H0       H01     AOSYM     SMH    MOLCAS    OPER   

              2       4        8.12       700     1000      520     2100   
                                         GEOM     BASIS   MCVARS     RHF  

 PROGRAMS   *        TOTAL     DF-HF       INT
 CPU TIMES  *        57.72     57.17      0.43
 REAL TIME  *        60.10 SEC
 DISK USED  *       200.10 MB
 **********************************************************************************************************************************


 Input parameters for LOCAL:

 LOCAL  =    5.000000
 THRLOC =   -1.000000

 PROGRAM * CCSD (Unrestricted open-shell coupled cluster)     Authors: C. Hampel, H.-J. Werner, 1991, M. Deegan, P.J. Knowles, 1992

                    Density fitting coupled cluster methods (ITF), W. Gyorffy, 2015

                              Local implementation by Y. Liu and H.-J. Werner, 2009


 Setting use_dist= 1

 Basis set AUG-CC-PVTZ/MP2FIT generated. Number of basis functions:   1018 

 Convergence thresholds:  THRVAR = 1.00D-08  THRDEN = 1.00D-06

 CCSD(T)     terms to be evaluated (factor= 1.000)


 Number of core orbitals:           7 (   7 )
 Number of closed-shell orbitals:  20 (  20 )
 Number of external orbitals:     433 ( 433 )

 Options for lccsd:

   local=       4
   itripl=      1
   iopdom=      5
   isdom=       2
   i3ext=       3
   i4ext=       1

 Using operators K(Cij)  

 icfit_3ext= 2  icfit_4ext= 2
 locfit_ccsd= 0  locfit_2ext= 0  locfit_3ext= 0  locfit_4ext= 0  locfit=-1

 Molecular orbitals read from record     2100.2  Type=RHF/CANONICAL (state 1.1)

 Local correlation treatment
 ===========================

 LOCAL=5  IBASO=0  NONORM=0  IDLCOR=2  KEEPCORE=0  SKIPD=3  LOCSNG= 0  LOCMUL=0  CANBLK=0  SHELLPERM=F

 Thresholds:

 THRLOC=  1.00D-06 (Smallest allowed eigenvalue in domain redundancy check)
 THRGAP=  1.00D-06 (Minimum eigenvalue gap in domain redundancy check)
 THRLOCT= 1.00D-06 (Smallest allowed eigenvalue in domain redundancy check of triples)
 THRGAPT= 1.00D-06 (Minimum eigenvalue gap in domain redundancy check of triples)
 THRORB=  1.00D-06 (Norm of projected orbitals)
 THRMP2=  1.00D-08 (Neglect of small Fock matrix elements)

 Orbital domain selection criteria:

 CHGFRAC=  0.985   CHGMIN=   0.010   CHGMINH=  0.030   CHGMAX=  0.500   CHGMIN_PAIRS=  0.200    MERGEDOM=0   CANBLK=0

 Weak and distant pair selection criteria:

 RCLOSE= 1.000   RWEAK= 3.000   RDIST= 8.000   RVDIST=15.000   KEEPCLS=0   KEEPCLS_3EXT=0   MP4CLS=0

 Options for approximating pair-single interactions:   JEDOM= 0   RMAX3X= 0.000   SKIPGE=0


 Pipek-Mezey localisation finished (npass= 15  nrot=   2331  Thresh=  0.10D-08  CPU=   0.01 sec)

 Ordering localized MOs according to charge centroids

 Generating projected atomic orbitals

 Deleting projected core orbital    1.1 (O 1s)    Norm=  0.13D-02
 Deleting projected core orbital   47.1 (C 1s)    Norm=  0.14D-02
 Deleting projected core orbital   93.1 (C 1s)    Norm=  0.16D-02
 Deleting projected core orbital  139.1 (O 1s)    Norm=  0.14D-02
 Deleting projected core orbital  185.1 (C 1s)    Norm=  0.14D-02
 Deleting projected core orbital  231.1 (C 1s)    Norm=  0.14D-02
 Deleting projected core orbital  277.1 (O 1s)    Norm=  0.14D-02

 Ranking of atoms according to Loewdin charges

 Orbital domains

   Orb.   Atom     Charge      Crit.
   8.1    1 O       1.32       0.996
   9.1    1 O       1.53       0.983
          2 C       0.23       0.996
  10.1    3 C       0.86       0.000
         10 H       0.63       0.987
  11.1    1 O       1.20       0.000
          8 H       0.50       0.994
  12.1    1 O       1.21       0.000
          2 C       0.50       0.996
  13.1    5 C       0.92       0.000
         11 H       0.74       0.991
  14.1    2 C       0.71       0.000
          3 C       0.68       0.988
  15.1    3 C       0.94       0.000
          9 H       0.69       0.996
  16.1    2 C       0.69       0.000
          5 C       0.66       0.980
          3 C       0.18       0.987
  17.1    4 O       1.06       0.921
          3 C       0.49       0.992
  18.1    4 O       1.17       0.000
          5 C       0.56       0.995
  19.1    4 O       1.52       0.962
          5 C       0.24       0.974
          3 C       0.13       0.981
          6 C       0.03       0.998
  20.1    4 O       1.40       0.994
  21.1    6 C       0.75       0.000
          2 C       0.69       0.990
  22.1    5 C       0.71       0.767
          6 C       0.38       0.965
          2 C       0.24       0.979
         12 H       0.14       0.984
          4 O       0.12       0.989
  23.1    6 C       0.89       0.000
         13 H       0.71       0.995
  24.1    7 O       1.17       0.000
          6 C       0.55       0.997
  25.1    7 O       1.23       0.976
         12 H       0.42       0.991
  26.1    7 O       1.42       0.969
          6 C       0.32       0.985
  27.1    7 O       1.33       0.997

 Number of strong pairs:          87
 Number of close pairs:           56     Rmin=      1.845
 Number of weak pairs:            67     Rmin=      3.529

 Average pair domain sizes:      153    (strong pairs: 145, close pairs: 179, weak pairs: 142, distant pairs:   0)

 Smallest S-eigenvalue of domains:  0.2030D-05   Pair: 123  Symmetry: 1

 United MP2 domains:        min= 453  max= 453  average= 453
 United LUCCSD domains:     min= 113  max= 430  average= 339

 Number of correlated orbitals in LUCCSD:  20
 Total United LUCCSD domain size:         453

 CPU-time for pair domains:             1.32 SEC

 Distance criteria for operator lists:     RMAXJ=      8.00  RMAXK=      8.00  RMAXL=     15.00
 Distance criteria for operator domains:   RDOMJ=      0.00  RDOMK=      8.00

 Using operator domains:    iopdom=5   sdom=2  kextyp=0   triptyp=2

 Number of orbital pairs:        210
 Length of K(kl) list:           210
 Number of operators K(kl):      210 (238.61 MB)   Domain sizes:    min=  90  max= 453  average= 379
 Number of operators J(kl):      210 (102.27 MB)   Domain sizes:    min=  90  max= 385  average= 242
 Number of y,z intermediates:    328
 Number of operators J/K(E):     328 (271.74 MB)   Domain sizes:    min= 113  max= 385  average= 264

 Number of orbital triples:      628  Number of 3-external CSFS:     6199147246

 Triples domains:           min=  68  max= 316  average= 200
 United T domains:          min= 316  max= 453  average= 377
 Triples per orbital:       min=  35  max= 142  average=  81

 File size for 4-external integrals using center quadruplets:   17.366 GB

 Number of N-1 electron functions:              40
 Number of N-2 electron functions:             780
 Number of singly external CSFs:              3562
 Number of doubly external CSFs:          15909331
 Total number of CSFs:                    15912893

 Number of correlated orbitals:                 20
 Number of weak pair functions:                 67  (treated by MP2)
 Number of strong pair functions:               87
 Total number of pair functions:               210
 Number of singly external local CSFs:        1781
 Number of doubly external local CSFs:     5345860 (all pairs)   3933008 (strong pairs)   1412852 (weak pairs)
 Total number of local CSFs:               5347642 (all pairs)   3934790 (strong pairs)

 Using 3-external integrals

 File size for 3-external integrals using MO/center triples:     5.721 GB
 Memory available:                      1022615691 words
 Memory left for 3ext caching:           918630471 words

 Minimum memory for triples:             103926425 words

 Used memory for triples:               1022383115 words
 caching ratio 3-ext integrals:   63.8%
 minimal number of LMOs cached:     12
 estimated number of LMOs cached:   20

 AO-basis loaded. Number of functions:                 460

 Fitting-basis AUG-CC-PVTZ-MP2F loaded for 0-2-external integrals.

 Number of fitting functions:                     1018
 CPU time for 2-ext exchange integrals            4.24 sec, Elapsed time=      4.88 sec

 Using incore algorithm in dfasmbl_coul, locfit=0

 CPU time for 2-ext Coulomb integrals             4.17 sec, Elapsed time=      4.21 sec
 CPU time for DF-2ext transformation (total)      8.41 sec, Elapsed time=      9.09 sec
 Local fitting disabled for 3-ext integrals

 Fitting-basis AUG-CC-PVTZ-MP2F loaded for 3-external integrals.

 Number of fitting functions:                     1018
 CPU time for DF-3ext transformations            61.40 sec, Elapsed time=     76.77 sec (including assembly of 3ext integrals)

 Fitting-basis AUG-CC-PVTZ-MP2F loaded for 4-external integrals.

 Number of fitting functions:                     1018
 Distributing 4-ext file on two disks:          1249132267          1081669886          2330802153
 CPU time for DF-4ext transformations           129.40 sec, Elapsed time=    140.19 sec

 Reference energy:                   -379.31498337

 ITER.     SQ.NORM      CORR.ENERGY   TOTAL ENERGY   ENERGY CHANGE        DEN1      VAR(S)    VAR(P)  DIIS     TIME
   1      1.42699317    -1.42542105  -380.74040442    -1.42542105    -0.02157274  0.18D-09  0.95D-02  1  1   206.93
   2      1.45371489    -1.44993977  -380.76492314    -0.02451872    -0.00190807  0.58D-10  0.13D-02  2  2   211.98
   3      1.45485660    -1.44838752  -380.76337089     0.00155225    -0.00057724  0.16D-10  0.39D-03  3  3   216.97
   4      1.45752395    -1.44917315  -380.76415652    -0.00078563    -0.00007332  0.73D-11  0.64D-04  4  4   222.04
   5      1.45910237    -1.44967898  -380.76466235    -0.00050583    -0.00001486  0.28D-11  0.13D-04  5  5   227.31
   6      1.45977190    -1.44984734  -380.76483070    -0.00016835    -0.00000356  0.78D-12  0.31D-05  6  6   232.57
   7      1.46006033    -1.44989778  -380.76488114    -0.00005044    -0.00000054  0.22D-12  0.44D-06  6  1   237.74
   8      1.46014302    -1.44991979  -380.76490316    -0.00002201    -0.00000003  0.42D-13  0.27D-07  6  3   243.02
   9      1.46015423    -1.44992193  -380.76490530    -0.00000214    -0.00000000  0.93D-14  0.11D-08  6  2   248.27
  10      1.46015287    -1.44992150  -380.76490486     0.00000043    -0.00000000  0.27D-14  0.10D-09  6  4   255.26

 Spin contamination <S**2-Sz**2-Sz>     0.00000000

 Norm of t1 vector:      0.00006045      S-energy:    -0.00000000      T1 diagnostic:  0.00000674
 Norm of t2 vector:      0.67834569      P-energy:    -1.44992150
                                         Alpha-Beta:  -1.07506571
                                         Alpha-Alpha: -0.18742789
                                         Beta-Beta:   -0.18742789

 MP2 energy of close+weak+distant pairs    -0.07399775

 Reference energy                    -379.314983366464
 Correlation energy                    -1.449921496653
 !RHF-LRMP2 STATE  1.1 Energy        -380.764904863117

 Starting LUCCSD calculation

 Reference energy:                   -379.31498337

 ITER.     SQ.NORM      CORR.ENERGY   TOTAL ENERGY   ENERGY CHANGE        DEN1      VAR(S)    VAR(P)  DIIS     TIME
   1      1.41294467    -1.34868749  -380.66367086    -1.34868749    -0.04375118  0.10D-01  0.97D-02  1  1   406.11
   2      1.43730009    -1.37188516  -380.68686853    -0.02319767    -0.00382147  0.45D-03  0.14D-02  2  2   555.81
   3      1.45095472    -1.37740791  -380.69239128    -0.00552275    -0.00118548  0.57D-03  0.35D-03  3  3   704.64
   4      1.46678018    -1.38295637  -380.69793974    -0.00554846    -0.00062200  0.30D-03  0.21D-03  4  4   844.71
   5      1.48588899    -1.38616694  -380.70115030    -0.00321057    -0.00032090  0.21D-03  0.11D-03  5  5   987.60
   6      1.49936895    -1.38702379  -380.70200716    -0.00085685    -0.00016036  0.11D-03  0.53D-04  6  6  1133.51
   7      1.50891407    -1.38734858  -380.70233195    -0.00032479    -0.00008183  0.66D-04  0.23D-04  6  2  1284.20
   8      1.52862170    -1.38860599  -380.70358936    -0.00125741    -0.00004341  0.37D-04  0.11D-04  6  1  1423.67
   9      1.53140605    -1.38880684  -380.70379020    -0.00020085    -0.00000890  0.64D-05  0.21D-05  6  4  1564.97
  10      1.53515552    -1.38873294  -380.70371631     0.00007390    -0.00000750  0.48D-05  0.18D-05  6  3  1695.53
  11      1.53232104    -1.38857031  -380.70355367     0.00016264    -0.00000181  0.13D-05  0.41D-06  6  2  1825.10
  12      1.53644170    -1.38873457  -380.70371793    -0.00016426    -0.00000219  0.20D-05  0.36D-06  6  5  1952.41
  13      1.53620604    -1.38864880  -380.70363217     0.00008577    -0.00000079  0.53D-06  0.20D-06  6  6  2077.62
  14      1.53705631    -1.38866518  -380.70364855    -0.00001638    -0.00000025  0.20D-06  0.49D-07  6  4  2202.45
  15      1.53773147    -1.38871542  -380.70369879    -0.00005024    -0.00000009  0.52D-07  0.28D-07  6  1  2326.25
  16      1.53713518    -1.38868661  -380.70366997     0.00002882    -0.00000005  0.25D-07  0.20D-07  6  3  2450.07
  17      1.53703191    -1.38868005  -380.70366342     0.00000655    -0.00000001  0.51D-08  0.35D-08  6  6  2573.83
  18      1.53686707    -1.38866423  -380.70364760     0.00001582    -0.00000000  0.21D-08  0.14D-08  6  4  2697.75
  19      1.53685888    -1.38866380  -380.70364717     0.00000043    -0.00000000  0.40D-09  0.10D-09  6  2  2823.75

 Spin contamination <S**2-Sz**2-Sz>     0.00000000

 Norm of t1 vector:      0.25056004      S-energy:     0.00000314      T1 diagnostic:  0.03247403
 Norm of t2 vector:      0.68853362      P-energy:    -1.38866694
                                         Alpha-Beta:  -1.08976565
                                         Alpha-Alpha: -0.14945065
                                         Beta-Beta:   -0.14945065

 ENTERING LOCAL TRIPLES SECTION
 including close pair MP2 amplitudes in Wijk
 computing T2S/ST2S on-the-fly
 Memory available:                       891519645 words
 Memory left for 3ext caching:           859077947 words

 Minimum memory for triples:              32382903 words

 Used memory for triples:                891304930 words
 caching ratio 3-ext integrals:   59.7%
 minimal number of LMOs cached:     11
 estimated number of LMOs cached:   20

 PERCENTAGE OF AMPLITUDE     SINGLE CONTRIBUTION   DOUBLE CONTRIBUTION     CPUTIME(TRIPLE)
      10% finished                0.00041586           -0.01366686            354.62
      20% finished                0.00055090           -0.01965214            924.29
      30% finished                0.00083590           -0.02462561           2239.73
      40% finished                0.00169303           -0.03450605           2740.25
      50% finished                0.00169813           -0.03734294           3589.70
      60% finished                0.00201436           -0.04380649           5761.30
      70% finished                0.00280705           -0.05823986           7222.65
      80% finished                0.00400939           -0.06532366           8605.69
      90% finished                0.00453115           -0.07184145           9940.41
     100% finished                0.00449539           -0.08299476          10659.29

 percentage hits 3ext-integral memory caching: 99.6 % (blocks), 99.6 % (words)
 percentage disk reads 3ext-integrals        :  0.4 % (words), overall:     14.446 GB

 (1) Triples without internal-internal couplings:

 CPU time for local triples(1):          10659.29 sec
 Memory used:                           940738016 words
 Total MP2 weak+close+distant pair     -0.014382527316


  RESULTS
  =======

  LUCCSD strong pair energy            -1.388666940509
  LMP2 close pair energy               -0.059615217890
  LMP2 weak pair energy                -0.014382527316


  Reference energy                   -379.314983366464

  LUCCSD correlation energy            -1.462661550053
 !LUCCSD total energy                -380.777644916517

  LUCCSD[T0] correlation energy        -1.545656311172   triples contribution= -0.082994761119
  LUCCSD[T0] total energy            -380.860639677636

  LUCCSD(T0) correlation energy        -1.541160917540   triples contribution= -0.078499367487
 !LUCCSD(T0) total energy            -380.856144284004

 Program statistics:

 Available memory:                      1023999973
 Available memory in lrmp2:             1022626699
 Max. memory used in lrmp2:               72224323
 Min. memory needed in lrmp2:             51244717
 Available memory in luccsd:            1018270840
 Max. memory used in luccsd:              59493366
 Min. memory needed in luccsd:            51716032



 **********************************************************************************************************************************
 DATASETS  * FILE   NREC   LENGTH (MB)   RECORD NAMES
              1      18       37.94       500      610      700      900      950      970     1000      129      960     1100   
                                          VAR    BASINP    GEOM    SYMINP    ZMAT    AOBASIS   BASIS     P2S    ABASIS      S 
                                         1400     1410     1200     1210     1080     1600     1650     1700   
                                           T        V       H0       H01     AOSYM     SMH    MOLCAS    OPER   

              2       4        8.12       700     1000      520     2100   
                                         GEOM     BASIS   MCVARS     RHF  

 PROGRAMS   *        TOTAL LUCCSD(T)     DF-HF       INT
 CPU TIMES  *     13541.12  13483.36     57.17      0.43
 REAL TIME  *     13827.85 SEC
 DISK USED  *        31.47 GB
 **********************************************************************************************************************************

 DF-LUCCSD(T)/aug-cc-pVTZ energy=   -380.856144284004

    DF-LUCCSD(T)           DF-HF
   -380.85614428   -379.31498337
 **********************************************************************************************************************************
 Molpro calculation terminated
