
 Primary working directories    : /var/tmp/pbs.368131.bp1/molpro.LcxlYnLHUU
 Secondary working directories  : /var/tmp/pbs.368131.bp1/molpro.LcxlYnLHUU
 Wavefunction directory         : /home/lb17101/molpro_test/inp/lowmem/
 Main file repository           : /home/lb17101/molpro_test/inp/lowmem/

 id        : uob

 Nodes                         nprocs
 bp1-01-05-04.data.bp.acrc.priv    1

 Using customized tuning parameters: mindgm=1; mindgv=20; mindgc=4; mindgr=1; noblas=0; minvec=7
 default implementation of scratch files=df  


 Variables initialized (934), CPU time= 0.00 sec
 geomtyp=xyz
 nosym
 noorient
 geometry={
  O      -0.705141627774       1.068348135497       1.435445358909
  C      -1.186229679449       0.087226148833       0.601252699167
  C      -1.133604931160      -0.368350330426      -1.098739362003
  C       0.043524907857      -1.268033651138      -1.119592175301
  O       1.214232583445      -0.182815932074      -0.991609542212
  C       2.042296438699       0.563456518834      -0.341077145078
  O       1.457177392016       1.767386882293       0.266678013167
  H       0.481375672542       1.673041887725       0.206284250530
  H      -1.490109498590      -1.228255005269       0.710814252655
  H      -2.153866500526      -1.171664546803      -1.319113521447
  H      -1.991829457869       0.851653816208      -1.221441968560
  H       0.110357364144      -2.259486359447       0.173405891096
  H       2.968138003125       0.611410280507      -0.318803577623
 }
 basis=avqz
 local,thrbp=0.99
 df-hf
 df-luccsd(t)
 Commands  initialized (763), CPU time= 0.01 sec, 617 directives.
 Default parameters read. Elapsed time= 0.09 sec

 Checking input...
 Passed
1


                                         ***  PROGRAM SYSTEM MOLPRO  ***
                                       Copyright, TTI GmbH Stuttgart, 2015
                                    Version 2019.2 linked Oct 25 2019 22:50:27


 **********************************************************************************************************************************
 LABEL *                                                                                 
  64 bit serial version                                                                  DATE: 22-Sep-20          TIME: 20:23:13  
 **********************************************************************************************************************************

 SHA1:             8dbd9ae1082e4ce945b0f27595c9eb2d4aa09004
 **********************************************************************************************************************************
 SETTING GEOMTYP        =    XYZ

 Variable memory set to 1024000000 words,  buffer space 

 ZSYMEL=NOSYM

 SETTING BASIS          =    AVQZ


 Recomputing integrals since basis changed


 Using spherical harmonics

 Library entry O      S aug-cc-pVQZ          selected for orbital group  1
 Library entry O      P aug-cc-pVQZ          selected for orbital group  1
 Library entry O      D aug-cc-pVQZ          selected for orbital group  1
 Library entry O      F aug-cc-pVQZ          selected for orbital group  1
 Library entry O      G aug-cc-pVQZ          selected for orbital group  1
 Library entry C      S aug-cc-pVQZ          selected for orbital group  2
 Library entry C      P aug-cc-pVQZ          selected for orbital group  2
 Library entry C      D aug-cc-pVQZ          selected for orbital group  2
 Library entry C      F aug-cc-pVQZ          selected for orbital group  2
 Library entry C      G aug-cc-pVQZ          selected for orbital group  2
 Library entry H      S aug-cc-pVQZ          selected for orbital group  6
 Library entry H      P aug-cc-pVQZ          selected for orbital group  6
 Library entry H      D aug-cc-pVQZ          selected for orbital group  6
 Library entry H      F aug-cc-pVQZ          selected for orbital group  6


 PROGRAM * SEWARD (Integral evaluation for generally contracted gaussian basis sets)     Author: Roland Lindh, 1990

 Geometry written to block  1 of record 700


 Point group  C1  



 ATOMIC COORDINATES

 NR  ATOM    CHARGE       X              Y              Z

   1  O       8.00   -1.332524556    2.018885382    2.712598595
   2  C       6.00   -2.241649215    0.164833532    1.136202933
   3  C       6.00   -2.142202853   -0.696081242   -2.076316476
   4  C       6.00    0.082250155   -2.396236317   -2.115722583
   5  O       8.00    2.294567034   -0.345472043   -1.873870457
   6  C       6.00    3.859380934    1.064778504   -0.644542392
   7  O       8.00    2.753666186    3.339877164    0.503948408
   8  H       1.00    0.909668184    3.161590963    0.389820737
   9  H       1.00   -2.815898848   -2.321065571    1.343244263
  10  H       1.00   -4.070217795   -2.214125103   -2.492763283
  11  H       1.00   -3.764012162    1.609392466   -2.308190798
  12  H       1.00    0.208545194   -4.269810402    0.327689643
  13  H       1.00    5.608967926    1.155397980   -0.602451449

 Bond lengths in Bohr (Angstrom)

  1- 2  2.597891297   2- 3  3.327363038   2- 9  2.559750594   3- 4  2.800048448   3-10  2.489001149
       ( 1.374744871)       ( 1.760764692)       ( 1.354561680)       ( 1.481721828)       ( 1.317122686)

  3-11  2.828292798   4- 5  3.026296835   5- 6  2.438995006   6- 7  2.778076697   6-13  1.752437781
       ( 1.496668095)       ( 1.601447318)       ( 1.290660575)       ( 1.470094878)       ( 0.927350137)

 7-8  1.856108759
     ( 0.982210456)

 Bond angles

  1- 2- 3  139.46864741   1- 2- 9  136.26226547   2- 3- 4  101.21164195   2- 3-10  107.22909946

  2- 3-11   81.43720286   3- 2- 9   80.41698842   3- 4- 5   99.68151827   4- 3-10  104.04597888

  4- 3-11  161.68445301   4- 5- 6  154.30556818   5- 6- 7  115.24798994   5- 6-13  133.04270820

  6- 7- 8  106.93788671   7- 6-13  110.18724479  10- 3-11   92.24999973

 NUCLEAR CHARGE:                   54
 NUMBER OF PRIMITIVE AOS:        1168
 NUMBER OF SYMMETRY AOS:          939
 NUMBER OF CONTRACTIONS:          836   (  836A   )
 NUMBER OF CORE ORBITALS:           7   (    7A   )
 NUMBER OF VALENCE ORBITALS:       34   (   34A   )


 NUCLEAR REPULSION ENERGY  287.72400796


 Eigenvalues of metric

         1 0.299E-05 0.459E-05 0.717E-05 0.875E-05 0.114E-04 0.149E-04 0.182E-04 0.189E-04


 OPERATOR DM      FOR CENTER  0  COORDINATES:    0.000000    0.000000    0.000000


 **********************************************************************************************************************************
 DATASETS  * FILE   NREC   LENGTH (MB)   RECORD NAMES
              1      18       55.62       500      610      700      900      950      970     1000      129      960     1100   
                                          VAR    BASINP    GEOM    SYMINP    ZMAT    AOBASIS   BASIS     P2S    ABASIS      S 
                                         1400     1410     1200     1210     1080     1600     1650     1700   
                                           T        V       H0       H01     AOSYM     SMH    MOLCAS    OPER   

 PROGRAMS   *        TOTAL       INT
 CPU TIMES  *         1.45      1.31
 REAL TIME  *         2.62 SEC
 DISK USED  *        56.37 MB
 **********************************************************************************************************************************


 PROGRAM * RHF-SCF (CLOSED SHELL)       Authors: W. Meyer, H.-J. Werner


 NUMBER OF ELECTRONS:      27+   27-    SPACE SYMMETRY=1    SPIN SYMMETRY: Singlet 
 CONVERGENCE THRESHOLDS:    1.00E-05 (Density)    1.00E-07 (Energy)
 INTEGRAL THRESHOLDS:       1.00E-12 (Initial)    1.00E-12 (Final)
 MAX. NUMBER OF ITERATIONS:       60
 INTERPOLATION TYPE:            DIIS
 INTERPOLATION STEPS:              2 (START)      1 (STEP)
 LEVEL SHIFTS:                  0.00 (CLOSED)  0.00 (OPEN) 




 Basis set AUG-CC-PVQZ/JKFIT generated.  Number of basis functions:   1450 

 Orbital guess generated from atomic densities. Full valence occupancy:   41
 Using density fitting in orbital guess

 Coulomb and exchange fitting
 Thresholds for fitting:       THRAO_COUL= 1.0D-15    THRAO_EXCH= 1.0D-13    THRMO= 1.0D-12    THRPROD= 1.0D-12    THRASM= 1.0D-12
                               THR2HLF=    1.0D-12

 Molecular orbital dump at record        2100.2

 Initial occupancy:  27

 ITERATION   DDIFF            GRAD            ENERGY        2-EL.EN.            DIPOLE MOMENTS         DIIS   CPU(IT)  CPU(TOT)  ORB.
    1      0.000D+00      0.000D+00      -378.90647262    843.515519    1.00047   -0.28203   -0.96736    0     26.3     57.2     start
    2      0.000D+00      0.293D-02      -379.00340294    842.506913    0.82532    0.73489   -0.17861    1     26.9     84.1     diag
    3      0.255D-02      0.241D-02      -379.10174275    844.469697    0.70401    0.11026   -0.52743    2     26.8    110.9     diag
    4      0.120D-02      0.461D-03      -379.10951663    844.097417    0.79494    0.21077   -0.39305    3     26.8    137.7     diag
    5      0.349D-03      0.203D-03      -379.11190501    843.994788    0.74833    0.18035   -0.45064    4     26.8    164.5     diag
    6      0.199D-03      0.953D-04      -379.11268492    844.162236    0.73082    0.19192   -0.40965    5     27.0    191.5     diag
    7      0.115D-03      0.469D-04      -379.11298158    844.077118    0.73128    0.18536   -0.41135    6     26.8    218.3     diag
    8      0.845D-04      0.213D-04      -379.11305038    844.095720    0.72313    0.19082   -0.40199    7     27.1    245.4     diag
    9      0.396D-04      0.127D-04      -379.11307033    844.087352    0.72269    0.18779   -0.40245    8     27.0    272.4     diag
   10      0.207D-04      0.636D-05      -379.11307705    844.085616    0.72216    0.18849   -0.39959    9     27.0    299.4     orth
   11      0.141D-04      0.269D-05      -379.11307817    844.083855    0.72184    0.18935   -0.39909    9     26.9    326.3     diag
   12      0.535D-05      0.133D-05      -379.11307841    844.083988    0.72207    0.18922   -0.39919    9     26.7    352.9     diag
   13      0.238D-05      0.665D-06      -379.11307848    844.083440    0.72207    0.18946   -0.39914    9     26.7    379.7     diag
   14      0.128D-05      0.330D-06      -379.11307849    844.083238    0.72212    0.18957   -0.39926    0     26.9    406.6     orth

 Final occupancy:  27

 !RHF STATE  1.1 Energy              -379.113078488100
 Nuclear energy                       287.72400796
 One-electron energy                -1088.87870522
 Two-electron energy                  422.04161877
 Virial quotient                       -1.00508449
 !RHF STATE  1.1 Dipole moment          0.72212267     0.18956516    -0.39925833
 Dipole moment /Debye                   1.83533254     0.48179502    -1.01474699

 Orbital energies:

         1.1          2.1          3.1          4.1          5.1          6.1          7.1          8.1          9.1         10.1
    -20.649731   -20.637714   -20.582419   -11.488253   -11.394486   -11.335510   -11.323408    -1.483591    -1.388528    -1.318801

        11.1         12.1         13.1         14.1         15.1         16.1         17.1         18.1         19.1         20.1
     -1.055865    -0.986130    -0.861081    -0.765693    -0.754228    -0.687426    -0.661989    -0.643064    -0.602515    -0.578158

        21.1         22.1         23.1         24.1         25.1         26.1         27.1         28.1         29.1
     -0.552726    -0.542752    -0.492856    -0.486127    -0.453685    -0.369405    -0.301591     0.011511     0.020160


 HOMO     27.1    -0.301591 =      -8.2067eV
 LUMO     28.1     0.011511 =       0.3132eV
 LUMO-HOMO         0.313102 =       8.5199eV


 **********************************************************************************************************************************
 DATASETS  * FILE   NREC   LENGTH (MB)   RECORD NAMES
              1      18       55.62       500      610      700      900      950      970     1000      129      960     1100   
                                          VAR    BASINP    GEOM    SYMINP    ZMAT    AOBASIS   BASIS     P2S    ABASIS      S 
                                         1400     1410     1200     1210     1080     1600     1650     1700   
                                           T        V       H0       H01     AOSYM     SMH    MOLCAS    OPER   

              2       4       19.90       700     1000      520     2100   
                                         GEOM     BASIS   MCVARS     RHF  

 PROGRAMS   *        TOTAL     DF-HF       INT
 CPU TIMES  *       408.44    406.99      1.31
 REAL TIME  *       424.28 SEC
 DISK USED  *       475.34 MB
 **********************************************************************************************************************************


 Input parameters for LOCAL:

 LOCAL  =    5.000000
 THRLOC =   -1.000000

 PROGRAM * CCSD (Unrestricted open-shell coupled cluster)     Authors: C. Hampel, H.-J. Werner, 1991, M. Deegan, P.J. Knowles, 1992

                    Density fitting coupled cluster methods (ITF), W. Gyorffy, 2015

                              Local implementation by Y. Liu and H.-J. Werner, 2009


 Setting use_dist= 1

 Basis set AUG-CC-PVQZ/MP2FIT generated. Number of basis functions:   1656 

 Convergence thresholds:  THRVAR = 1.00D-08  THRDEN = 1.00D-06

 CCSD(T)     terms to be evaluated (factor= 1.000)


 Number of core orbitals:           7 (   7 )
 Number of closed-shell orbitals:  20 (  20 )
 Number of external orbitals:     809 ( 809 )

 Options for lccsd:

   local=       4
   itripl=      1
   iopdom=      5
   isdom=       2
   i3ext=       3
   i4ext=       1

 Using operators K(Cij)  

 icfit_3ext= 2  icfit_4ext= 2
 locfit_ccsd= 0  locfit_2ext= 0  locfit_3ext= 0  locfit_4ext= 0  locfit=-1

 Molecular orbitals read from record     2100.2  Type=RHF/CANONICAL (state 1.1)

 Local correlation treatment
 ===========================

 LOCAL=5  IBASO=0  NONORM=0  IDLCOR=2  KEEPCORE=0  SKIPD=3  LOCSNG= 0  LOCMUL=0  CANBLK=0  SHELLPERM=F

 Thresholds:

 THRLOC=  1.00D-06 (Smallest allowed eigenvalue in domain redundancy check)
 THRGAP=  1.00D-06 (Minimum eigenvalue gap in domain redundancy check)
 THRLOCT= 1.00D-06 (Smallest allowed eigenvalue in domain redundancy check of triples)
 THRGAPT= 1.00D-06 (Minimum eigenvalue gap in domain redundancy check of triples)
 THRORB=  1.00D-06 (Norm of projected orbitals)
 THRMP2=  1.00D-08 (Neglect of small Fock matrix elements)

 Orbital domain selection criteria:

 CHGFRAC=  0.990   CHGMIN=   0.010   CHGMINH=  0.030   CHGMAX=  0.500   CHGMIN_PAIRS=  0.200    MERGEDOM=0   CANBLK=0

 Weak and distant pair selection criteria:

 RCLOSE= 1.000   RWEAK= 3.000   RDIST= 8.000   RVDIST=15.000   KEEPCLS=0   KEEPCLS_3EXT=0   MP4CLS=0

 Options for approximating pair-single interactions:   JEDOM= 0   RMAX3X= 0.000   SKIPGE=0


 Pipek-Mezey localisation finished (npass= 10  nrot=   1567  Thresh=  0.10D-08  CPU=   0.02 sec)

 Ordering localized MOs according to charge centroids

 Generating projected atomic orbitals

 Deleting projected core orbital    1.1 (O 1s)    Norm=  0.12D-02
 Deleting projected core orbital   81.1 (C 1s)    Norm=  0.80D-03
 Deleting projected core orbital  161.1 (C 1s)    Norm=  0.78D-03
 Deleting projected core orbital  241.1 (C 1s)    Norm=  0.30D-02
 Deleting projected core orbital  321.1 (O 1s)    Norm=  0.94D-03
 Deleting projected core orbital  401.1 (C 1s)    Norm=  0.12D-02
 Deleting projected core orbital  481.1 (O 1s)    Norm=  0.12D-02

 Ranking of atoms according to Loewdin charges

 Orbital domains

   Orb.   Atom     Charge      Crit.
   8.1    3 C       0.80       0.000
         10 H       0.64       0.995
   9.1    3 C       0.80       0.000
         11 H       0.63       0.995
  10.1    2 C       0.84       0.000
          9 H       0.66       0.992
  11.1    2 C       0.71       0.000
          3 C       0.61       0.994
  12.1    1 O       1.09       0.000
          2 C       0.72       0.998
  13.1    1 O       1.29       0.000
          2 C       0.52       0.997
  14.1    1 O       1.48       0.979
          2 C       0.33       0.994
  15.1    1 O       1.51       0.994
  16.1    4 C       0.76       0.000
          3 C       0.75       0.994
  17.1    4 C       0.76       0.000
         12 H       0.63       0.977
          3 C       0.22       0.990
  18.1    4 C       1.17       0.979
          3 C       0.29       0.991
  19.1    7 O       1.15       0.000
          8 H       0.55       0.996
  20.1    5 O       1.32       0.980
          6 C       0.31       0.993
  21.1    5 O       1.18       0.959
          6 C       0.41       0.986
          4 C       0.23       0.997
  22.1    5 O       1.23       0.984
          6 C       0.32       0.991
  23.1    7 O       1.32       0.981
          6 C       0.29       0.996
  24.1    5 O       1.05       0.000
          6 C       0.65       0.996
  25.1    7 O       1.35       0.997
  26.1    7 O       0.98       0.000
          6 C       0.57       0.998
  27.1    6 C       0.94       0.000
         13 H       0.78       0.997

 Number of strong pairs:          77
 Number of close pairs:           15     Rmin=      2.598
 Number of weak pairs:           118     Rmin=      3.026

 Average pair domain sizes:      256    (strong pairs: 197, close pairs: 283, weak pairs: 290, distant pairs:   0)
 Number of redundant orbitals:    13

 Largest S-eigenvalue of redundant functions:  0.9866D-06   Pair:  84  Symmetry: 1
 Smallest S-eigenvalue of domains              0.1044D-05   Pair:  81  Symmetry: 1

 United MP2 domains:        min= 829  max= 829  average= 829
 United LUCCSD domains:     min= 158  max= 658  average= 424

 Number of correlated orbitals in LUCCSD:  20
 Total United LUCCSD domain size:         829

 CPU-time for pair domains:             8.82 SEC

 Distance criteria for operator lists:     RMAXJ=      8.00  RMAXK=      8.00  RMAXL=     15.00
 Distance criteria for operator domains:   RDOMJ=      0.00  RDOMK=      8.00

 Using operator domains:    iopdom=5   sdom=2  kextyp=0   triptyp=2

 Number of orbital pairs:        210
 Length of K(kl) list:           210
 Number of operators K(kl):      210 (570.71 MB)   Domain sizes:    min= 158  max= 829  average= 552
 Number of operators J(kl):      210 (166.07 MB)   Domain sizes:    min= 158  max= 533  average= 313
 Number of y,z intermediates:    240
 Number of operators J/K(E):     240 (319.05 MB)   Domain sizes:    min= 158  max= 533  average= 335

 Number of orbital triples:      283  Number of 3-external CSFS:     5545047760

 Triples domains:           min= 125  max= 441  average= 253
 United T domains:          min= 283  max= 704  average= 435
 Triples per orbital:       min=  20  max=  71  average=  35

 File size for 4-external integrals using center quadruplets:   65.938 GB

 Number of N-1 electron functions:              40
 Number of N-2 electron functions:             780
 Number of singly external CSFs:              5924
 Number of doubly external CSFs:          43007550
 Total number of CSFs:                    43013474

 Number of correlated orbitals:                 20
 Number of weak pair functions:                118  (treated by MP2)
 Number of strong pair functions:               77
 Total number of pair functions:               210
 Number of singly external local CSFs:        2962
 Number of doubly external local CSFs:    14431413 (all pairs)   4254781 (strong pairs)  10176632 (weak pairs)
 Total number of local CSFs:              14434376 (all pairs)   4257744 (strong pairs)

 Using 3-external integrals

 File size for 3-external integrals using MO/center triples:    14.956 GB
 Memory available:                      1020198315 words
 Memory left for 3ext caching:           741525861 words

 Minimum memory for triples:             278662553 words

 Used memory for triples:               1019276259 words
 caching ratio 3-ext integrals:   22.0%
 minimal number of LMOs cached:      3
 estimated number of LMOs cached:    8

 AO-basis loaded. Number of functions:                 836

 Fitting-basis AUG-CC-PVQZ-MP2F loaded for 0-2-external integrals.

 Number of fitting functions:                     1656
 CPU time for 2-ext exchange integrals           38.97 sec, Elapsed time=     42.43 sec

 Using incore algorithm in dfasmbl_coul, locfit=0

 CPU time for 2-ext Coulomb integrals            41.07 sec, Elapsed time=     41.81 sec
 CPU time for DF-2ext transformation (total)     80.04 sec, Elapsed time=     84.24 sec
 Local fitting disabled for 3-ext integrals

 Fitting-basis AUG-CC-PVQZ-MP2F loaded for 3-external integrals.

 Number of fitting functions:                     1656
 CPU time for DF-3ext transformations           598.21 sec, Elapsed time=    693.33 sec (including assembly of 3ext integrals)

 Fitting-basis AUG-CC-PVQZ-MP2F loaded for 4-external integrals.

 Number of fitting functions:                     1656
 Distributing 4-ext file on two disks:          4193168131          4656923856          8850091987
 CPU time for DF-4ext transformations          1574.04 sec, Elapsed time=   1832.59 sec

 Reference energy:                   -379.11307849

 ITER.     SQ.NORM      CORR.ENERGY   TOTAL ENERGY   ENERGY CHANGE        DEN1      VAR(S)    VAR(P)  DIIS     TIME
   1      1.46588306    -1.51231016  -380.62538865    -1.51231016    -0.01864143  0.27D-09  0.79D-02  1  1  2323.43
   2      1.48689803    -1.53584771  -380.64892620    -0.02353755    -0.00106833  0.51D-10  0.54D-03  2  2  2370.29
   3      1.48432050    -1.53215870  -380.64523719     0.00368901    -0.00035172  0.52D-11  0.19D-03  3  3  2416.76
   4      1.48430149    -1.53192157  -380.64500006     0.00023714    -0.00000461  0.20D-11  0.27D-05  4  4  2463.28
   5      1.48443812    -1.53198241  -380.64506089    -0.00006084    -0.00000070  0.64D-12  0.44D-06  5  5  2509.88
   6      1.48444158    -1.53196782  -380.64504630     0.00001459    -0.00000005  0.10D-12  0.29D-07  6  6  2556.55
   7      1.48444465    -1.53196939  -380.64504788    -0.00000157    -0.00000001  0.18D-13  0.33D-08  6  1  2602.83
   8      1.48444638    -1.53197130  -380.64504979    -0.00000191    -0.00000000  0.35D-14  0.18D-09  6  2  2648.73
   9      1.48444566    -1.53197065  -380.64504914     0.00000065    -0.00000000  0.68D-15  0.20D-10  6  3  2694.42

 Spin contamination <S**2-Sz**2-Sz>     0.00000000

 Norm of t1 vector:      0.00007357      S-energy:    -0.00000000      T1 diagnostic:  0.00001218
 Norm of t2 vector:      0.69602130      P-energy:    -1.53197065
                                         Alpha-Beta:  -1.15560170
                                         Alpha-Alpha: -0.18818447
                                         Beta-Beta:   -0.18818447

 MP2 energy of close+weak+distant pairs    -0.07866806

 Reference energy                    -379.113078488100
 Correlation energy                    -1.531970652824
 !RHF-LRMP2 STATE  1.1 Energy        -380.645049140925

 Starting LUCCSD calculation

 Reference energy:                   -379.11307849

 ITER.     SQ.NORM      CORR.ENERGY   TOTAL ENERGY   ENERGY CHANGE        DEN1      VAR(S)    VAR(P)  DIIS     TIME
   1      1.44409900    -1.41380135  -380.52687984    -1.41380135    -0.05535723  0.15D-01  0.12D-01  1  1  3266.09
   2      1.47447429    -1.44256733  -380.55564582    -0.02876597    -0.00574137  0.38D-03  0.22D-02  2  2  3848.37
   3      1.49774887    -1.45435629  -380.56743478    -0.01178896    -0.00173391  0.52D-03  0.58D-03  3  3  4344.75
   4      1.51897604    -1.46195458  -380.57503307    -0.00759829    -0.00060461  0.20D-03  0.20D-03  4  4  4907.54
   5      1.53269545    -1.46555354  -380.57863203    -0.00359896    -0.00012976  0.51D-04  0.43D-04  5  5  5474.54
   6      1.53068030    -1.46429190  -380.57737039     0.00126164    -0.00001963  0.85D-05  0.55D-05  6  6  6021.97
   7      1.53374612    -1.46500520  -380.57808369    -0.00071330    -0.00001321  0.67D-05  0.37D-05  6  1  6588.89
   8      1.53711336    -1.46564623  -380.57872472    -0.00064103    -0.00000365  0.21D-05  0.95D-06  6  2  7182.14
   9      1.53653792    -1.46547674  -380.57855523     0.00016949    -0.00000066  0.30D-06  0.19D-06  6  4  7747.46
  10      1.53604779    -1.46539402  -380.57847251     0.00008272    -0.00000015  0.91D-07  0.34D-07  6  3  8302.36
  11      1.53619599    -1.46541476  -380.57849324    -0.00002074    -0.00000010  0.73D-07  0.19D-07  6  5  8849.11
  12      1.53633243    -1.46542932  -380.57850781    -0.00001457    -0.00000003  0.19D-07  0.46D-08  6  1  9386.95
  13      1.53630086    -1.46542639  -380.57850487     0.00000294    -0.00000001  0.73D-08  0.30D-08  6  6  9927.04
  14      1.53629962    -1.46542910  -380.57850758    -0.00000271    -0.00000000  0.28D-08  0.10D-08  6  4 10460.35
  15      1.53629971    -1.46543207  -380.57851055    -0.00000297    -0.00000000  0.14D-08  0.42D-09  6  2 10989.57
  16      1.53631178    -1.46543504  -380.57851353    -0.00000298    -0.00000000  0.39D-09  0.88D-10  6  3 11529.33
  17      1.53631058    -1.46543452  -380.57851301     0.00000052    -0.00000000  0.87D-10  0.24D-10  6  1 12074.77

 Spin contamination <S**2-Sz**2-Sz>     0.00000000

 Norm of t1 vector:      0.18932558      S-energy:     0.00000086      T1 diagnostic:  0.02633456
 Norm of t2 vector:      0.70743650      P-energy:    -1.46543538
                                         Alpha-Beta:  -1.16925707
                                         Alpha-Alpha: -0.14808915
                                         Beta-Beta:   -0.14808915

 ENTERING LOCAL TRIPLES SECTION
 including close pair MP2 amplitudes in Wijk
 computing T2S/ST2S on-the-fly
 Memory available:                       718841341 words
 Memory left for 3ext caching:           630276480 words

 Minimum memory for triples:              88554960 words

 Used memory for triples:                718224541 words
 caching ratio 3-ext integrals:   18.7%
 minimal number of LMOs cached:      3
 estimated number of LMOs cached:    6

 PERCENTAGE OF AMPLITUDE     SINGLE CONTRIBUTION   DOUBLE CONTRIBUTION     CPUTIME(TRIPLE)
      10% finished                0.00208403           -0.02272446            809.28
      20% finished                0.00260556           -0.03352622           1578.75
      30% finished                0.00275499           -0.03918963           2945.83
      40% finished                0.00294217           -0.04395137           8281.10
      50% finished                0.00345647           -0.05207678          10794.40
      60% finished                0.00398554           -0.06023620          12489.76
      70% finished                0.00421302           -0.06400639          14075.82
      80% finished                0.00469256           -0.07016556          15305.70
      90% finished                0.00505423           -0.07490619          17328.64
     100% finished                0.00518203           -0.07773024          18851.65

 percentage hits 3ext-integral memory caching: 88.7 % (blocks), 88.9 % (words)
 percentage disk reads 3ext-integrals        : 11.1 % (words), overall:    353.753 GB

 (1) Triples without internal-internal couplings:

 CPU time for local triples(1):          18851.65 sec
 Memory used:                           827205116 words
 Total MP2 weak+close+distant pair     -0.065810037489


  RESULTS
  =======

  LUCCSD strong pair energy            -1.465435378511
  LMP2 close pair energy               -0.012858023882
  LMP2 weak pair energy                -0.065810037489


  Reference energy                   -379.113078488100

  LUCCSD correlation energy            -1.544102579297
 !LUCCSD total energy                -380.657181067397

  LUCCSD[T0] correlation energy        -1.621832818172   triples contribution= -0.077730238875
  LUCCSD[T0] total energy            -380.734911306273

  LUCCSD(T0) correlation energy        -1.616650787685   triples contribution= -0.072548208388
 !LUCCSD(T0) total energy            -380.729729275785

 Program statistics:

 Available memory:                      1023999973
 Available memory in lrmp2:             1020221667
 Max. memory used in lrmp2:              196787050
 Min. memory needed in lrmp2:            140226252
 Available memory in luccsd:            1006146434
 Max. memory used in luccsd:             121302507
 Min. memory needed in luccsd:           110486989



 **********************************************************************************************************************************
 DATASETS  * FILE   NREC   LENGTH (MB)   RECORD NAMES
              1      19       55.63       500      610      700      900      950      970     1000      129      960     1100   
                                          VAR    BASINP    GEOM    SYMINP    ZMAT    AOBASIS   BASIS     P2S    ABASIS      S 
                                         1400     1410     1200     1210     1080     1600     1650     1700      960(1)
                                           T        V       H0       H01     AOSYM     SMH    MOLCAS    OPER    ABASIS    

              2       4       19.90       700     1000      520     2100   
                                         GEOM     BASIS   MCVARS     RHF  

 PROGRAMS   *        TOTAL LUCCSD(T)     DF-HF       INT
 CPU TIMES  *     31336.16  30927.69    406.99      1.31
 REAL TIME  *    239783.29 SEC
 DISK USED  *       106.81 GB
 **********************************************************************************************************************************

 DF-LUCCSD(T)/aug-cc-pVQZ energy=   -380.729729275785

    DF-LUCCSD(T)           DF-HF
   -380.72972928   -379.11307849
 **********************************************************************************************************************************
 Molpro calculation terminated
