
 Primary working directories    : /var/tmp/pbs.368132.bp1/molpro.mSOVCvLYtD
 Secondary working directories  : /var/tmp/pbs.368132.bp1/molpro.mSOVCvLYtD
 Wavefunction directory         : /home/lb17101/molpro_test/inp/lowmem/
 Main file repository           : /home/lb17101/molpro_test/inp/lowmem/

 id        : uob

 Nodes                         nprocs
 bp1-01-04-04.data.bp.acrc.priv    1

 Using customized tuning parameters: mindgm=1; mindgv=20; mindgc=4; mindgr=1; noblas=0; minvec=7
 default implementation of scratch files=df  


 Variables initialized (934), CPU time= 0.00 sec
 geomtyp=xyz
 nosym
 noorient
 geometry={
  C      -2.105596204421       0.535677663481      -0.151794926130
  C      -1.376999116240      -0.516108772044       0.058173674195
  C      -0.210397482178      -1.309131542876      -0.411992436819
  N       1.176676410634      -1.051399948153      -0.508377644586
  C       1.247002405252       0.256052756653      -0.048054089579
  N       2.473764445406       0.856828547356      -0.601040986858
  O       0.314842796730       0.555613334498       0.765766571628
  H      -1.041156553642       1.206958278275      -0.803760714685
  H      -2.870000252621       0.341161949986      -1.137985690052
  H      -2.444357935433       0.783067242155       0.942243419155
  H      -0.961480037088      -2.351333975222      -1.204224241063
  H       3.002837802981       0.819621410290       0.375297271505
  H       2.914691335518      -0.275970397062      -0.672638512232
 }
 basis=avtz
 local,thrbp=0.985
 df-hf
 df-ldcsd
 Commands  initialized (763), CPU time= 0.01 sec, 617 directives.
 Default parameters read. Elapsed time= 0.08 sec

 Checking input...
 Passed
1


                                         ***  PROGRAM SYSTEM MOLPRO  ***
                                       Copyright, TTI GmbH Stuttgart, 2015
                                    Version 2019.2 linked Oct 25 2019 22:50:27


 **********************************************************************************************************************************
 LABEL *                                                                                 
  64 bit serial version                                                                  DATE: 22-Sep-20          TIME: 20:24:38  
 **********************************************************************************************************************************

 SHA1:             8dbd9ae1082e4ce945b0f27595c9eb2d4aa09004
 **********************************************************************************************************************************
 SETTING GEOMTYP        =    XYZ

 Variable memory set to 1024000000 words,  buffer space 

 ZSYMEL=NOSYM

 SETTING BASIS          =    AVTZ


 Recomputing integrals since basis changed


 Using spherical harmonics

 Library entry C      S aug-cc-pVTZ          selected for orbital group  1
 Library entry C      P aug-cc-pVTZ          selected for orbital group  1
 Library entry C      D aug-cc-pVTZ          selected for orbital group  1
 Library entry C      F aug-cc-pVTZ          selected for orbital group  1
 Library entry N      S aug-cc-pVTZ          selected for orbital group  2
 Library entry N      P aug-cc-pVTZ          selected for orbital group  2
 Library entry N      D aug-cc-pVTZ          selected for orbital group  2
 Library entry N      F aug-cc-pVTZ          selected for orbital group  2
 Library entry O      S aug-cc-pVTZ          selected for orbital group  5
 Library entry O      P aug-cc-pVTZ          selected for orbital group  5
 Library entry O      D aug-cc-pVTZ          selected for orbital group  5
 Library entry O      F aug-cc-pVTZ          selected for orbital group  5
 Library entry H      S aug-cc-pVTZ          selected for orbital group  6
 Library entry H      P aug-cc-pVTZ          selected for orbital group  6
 Library entry H      D aug-cc-pVTZ          selected for orbital group  6


 PROGRAM * SEWARD (Integral evaluation for generally contracted gaussian basis sets)     Author: Roland Lindh, 1990

 Geometry written to block  1 of record 700


 Point group  C1  



 ATOMIC COORDINATES

 NR  ATOM    CHARGE       X              Y              Z

   1  C       6.00   -3.979000155    1.012284075   -0.286850837
   2  C       6.00   -2.602151203   -0.975304230    0.109932312
   3  C       6.00   -0.397593619   -2.473900077   -0.778552871
   4  N       7.00    2.223596153   -1.986857949   -0.960694516
   5  C       6.00    2.356493023    0.483869584   -0.090809068
   6  N       7.00    4.674737299    1.619171290   -1.135802855
   7  O       8.00    0.594966658    1.049957033    1.447089096
   8  H       1.00   -1.967500739    2.280820590   -1.518887620
   9  H       1.00   -5.423514455    0.644702650   -2.150481288
  10  H       1.00   -4.619167048    1.479782625    1.780582005
  11  H       1.00   -1.816933944   -4.443377241   -2.275654008
  12  H       1.00    5.674541044    1.548859991    0.709209058
  13  H       1.00    5.507968362   -0.521508469   -1.271102569

 Bond lengths in Bohr (Angstrom)

  1- 2  2.450236146   1- 8  2.678288525   1- 9  2.386389767   1-10  2.214192201   2- 3  2.809852234
       ( 1.296609130)       ( 1.417289252)       ( 1.262823081)       ( 1.171700053)       ( 1.486909768)

  3- 4  2.672268967   4- 5  2.622757482   5- 6  2.784812112   5- 7  2.405942829   6-12  2.099671443
       ( 1.414103839)       ( 1.387903489)       ( 1.473659107)       ( 1.273170116)       ( 1.111098278)

  6-13  2.301106223
       ( 1.217692973)

 Bond angles

  1- 2- 3  145.31608218   2- 1- 8   92.10154463   2- 1- 9  109.97777100   2- 1-10  100.51722849

  2-3-4  133.94217941   3-4-5  101.46614205   4-5-6  107.56386041   4-5-7  113.36297667

  5- 6-12   93.03846965   5- 6-13   86.80372182   6- 5- 7  138.88846614   8- 1- 9   99.69071512

  8- 1-10  123.13796328   9- 1-10  125.92271218  12- 6-13   81.26250689

 NUCLEAR CHARGE:                   52
 NUMBER OF PRIMITIVE AOS:         631
 NUMBER OF SYMMETRY AOS:          556
 NUMBER OF CONTRACTIONS:          460   (  460A   )
 NUMBER OF CORE ORBITALS:           7   (    7A   )
 NUMBER OF VALENCE ORBITALS:       34   (   34A   )


 NUCLEAR REPULSION ENERGY  282.47068959


 Eigenvalues of metric

         1 0.121E-04 0.135E-04 0.227E-04 0.259E-04 0.294E-04 0.329E-04 0.584E-04 0.633E-04


 OPERATOR DM      FOR CENTER  0  COORDINATES:    0.000000    0.000000    0.000000


 **********************************************************************************************************************************
 DATASETS  * FILE   NREC   LENGTH (MB)   RECORD NAMES
              1      18       37.94       500      610      700      900      950      970     1000      129      960     1100   
                                          VAR    BASINP    GEOM    SYMINP    ZMAT    AOBASIS   BASIS     P2S    ABASIS      S 
                                         1400     1410     1200     1210     1080     1600     1650     1700   
                                           T        V       H0       H01     AOSYM     SMH    MOLCAS    OPER   

 PROGRAMS   *        TOTAL       INT
 CPU TIMES  *         0.80      0.65
 REAL TIME  *         1.87 SEC
 DISK USED  *        38.55 MB
 **********************************************************************************************************************************


 PROGRAM * RHF-SCF (CLOSED SHELL)       Authors: W. Meyer, H.-J. Werner


 NUMBER OF ELECTRONS:      26+   26-    SPACE SYMMETRY=1    SPIN SYMMETRY: Singlet 
 CONVERGENCE THRESHOLDS:    1.00E-05 (Density)    1.00E-07 (Energy)
 INTEGRAL THRESHOLDS:       1.00E-11 (Initial)    1.00E-11 (Final)
 MAX. NUMBER OF ITERATIONS:       60
 INTERPOLATION TYPE:            DIIS
 INTERPOLATION STEPS:              2 (START)      1 (STEP)
 LEVEL SHIFTS:                  0.00 (CLOSED)  0.00 (OPEN) 




 Basis set AUG-CC-PVTZ/JKFIT generated.  Number of basis functions:   1004 

 Orbital guess generated from atomic densities. Full valence occupancy:   41
 Using density fitting in orbital guess

 Coulomb and exchange fitting
 Thresholds for fitting:       THRAO_COUL= 1.0D-14    THRAO_EXCH= 1.0D-12    THRMO= 1.0D-11    THRPROD= 1.0D-11    THRASM= 1.0D-11
                               THR2HLF=    1.0D-11

 Molecular orbital dump at record        2100.2

 Initial occupancy:  26

 ITERATION   DDIFF            GRAD            ENERGY        2-EL.EN.            DIPOLE MOMENTS         DIIS   CPU(IT)  CPU(TOT)  ORB.
    1      0.000D+00      0.000D+00      -338.25377378    802.216521   -1.43923    0.06592   -0.77767    0      6.5     14.2     start
    2      0.000D+00      0.342D-02      -338.35597921    796.831830   -1.15936    0.01251   -0.01205    1      6.3     20.6     diag
    3      0.401D-02      0.233D-02      -338.40239753    799.253467   -0.99516   -0.05345   -0.41656    2      6.4     27.0     diag
    4      0.163D-02      0.497D-03      -338.40834440    799.066123   -0.97537   -0.06638   -0.29750    3      6.3     33.3     diag
    5      0.666D-03      0.235D-03      -338.40989050    798.995506   -0.87715   -0.10944   -0.35346    4      6.3     39.6     diag
    6      0.326D-03      0.110D-03      -338.41052255    798.951570   -0.85557   -0.12034   -0.33718    5      6.3     45.9     diag
    7      0.215D-03      0.495D-04      -338.41074170    798.942640   -0.81284   -0.14059   -0.34106    6      6.3     52.3     diag
    8      0.141D-03      0.324D-04      -338.41081112    798.929185   -0.80255   -0.14535   -0.34011    7      6.3     58.6     diag
    9      0.785D-04      0.156D-04      -338.41084054    798.916537   -0.79204   -0.15023   -0.33871    8      6.5     65.1     diag
   10      0.575D-04      0.877D-05      -338.41084997    798.918074   -0.78900   -0.15088   -0.33792    9      6.3     71.4     orth
   11      0.320D-04      0.513D-05      -338.41085370    798.911723   -0.78785   -0.15174   -0.33694    9      6.3     77.7     diag
   12      0.235D-04      0.269D-05      -338.41085466    798.911361   -0.78751   -0.15157   -0.33646    9      6.3     84.1     diag
   13      0.135D-04      0.114D-05      -338.41085480    798.912076   -0.78756   -0.15184   -0.33633    9      6.3     90.4     diag
   14      0.494D-05      0.528D-06      -338.41085481    798.911486   -0.78757   -0.15184   -0.33625    9      6.4     96.8     diag
   15      0.144D-05      0.213D-06      -338.41085481    798.911788   -0.78757   -0.15184   -0.33630    0      6.4    103.2     orth

 Final occupancy:  26

 !RHF STATE  1.1 Energy              -338.410854813533
 Nuclear energy                       282.47068959
 One-electron energy                -1020.33743839
 Two-electron energy                  399.45589398
 Virial quotient                       -1.00485347
 !RHF STATE  1.1 Dipole moment         -0.78757179    -0.15184048    -0.33629545
 Dipole moment /Debye                  -2.00167670    -0.38591472    -0.85472179

 Orbital energies:

         1.1          2.1          3.1          4.1          5.1          6.1          7.1          8.1          9.1         10.1
    -20.545640   -15.622492   -15.569681   -11.395724   -11.381276   -11.317078   -11.307554    -1.399145    -1.224107    -1.162439

        11.1         12.1         13.1         14.1         15.1         16.1         17.1         18.1         19.1         20.1
     -1.109396    -0.912220    -0.768972    -0.707124    -0.659441    -0.639410    -0.634826    -0.625284    -0.562455    -0.543168

        21.1         22.1         23.1         24.1         25.1         26.1         27.1         28.1
     -0.500528    -0.479331    -0.474381    -0.443238    -0.415824    -0.312090     0.020892     0.032553


 HOMO     26.1    -0.312090 =      -8.4924eV
 LUMO     27.1     0.020892 =       0.5685eV
 LUMO-HOMO         0.332982 =       9.0609eV


 **********************************************************************************************************************************
 DATASETS  * FILE   NREC   LENGTH (MB)   RECORD NAMES
              1      18       37.94       500      610      700      900      950      970     1000      129      960     1100   
                                          VAR    BASINP    GEOM    SYMINP    ZMAT    AOBASIS   BASIS     P2S    ABASIS      S 
                                         1400     1410     1200     1210     1080     1600     1650     1700   
                                           T        V       H0       H01     AOSYM     SMH    MOLCAS    OPER   

              2       4        8.12       700     1000      520     2100   
                                         GEOM     BASIS   MCVARS     RHF  

 PROGRAMS   *        TOTAL     DF-HF       INT
 CPU TIMES  *       104.03    103.24      0.65
 REAL TIME  *       118.29 SEC
 DISK USED  *       200.10 MB
 **********************************************************************************************************************************


 Input parameters for LOCAL:

 LOCAL  =   -1.000000
 THRLOC =   -1.000000

 PROGRAM * CCSD (Closed-shell coupled cluster)     Authors: C. Hampel, H.-J. Werner, 1991, M. Deegan, P.J. Knowles, 1992

                    Density fitting coupled cluster methods (ITF), W. Gyorffy, 2015

                              Local implementation by C. Hampel and H.-J. Werner, 1996
                                    M. Schuetz, G. Hetzer, and H.-J. Werner, 1999
                              Distinguishable Cluster modification by D. Kats, 2013

 Setting use_dist= 1

 Basis set AUG-CC-PVTZ/MP2FIT generated. Number of basis functions:   1018 

 Convergence thresholds:  THRVAR = 1.00D-08  THRDEN = 1.00D-06

 Number of core orbitals:           7 (   7 )
 Number of closed-shell orbitals:  19 (  19 )
 Number of external orbitals:     434 ( 434 )

 Molecular orbitals read from record     2100.2  Type=RHF/CANONICAL (state 1.1)

 Options for lccsd:

   local=       4
   iopdom=      5
   isdom=       2
   i3ext=       3
   i4ext=       1

 Using operators K(Cij)  

 Local correlation treatment
 ===========================

 LOCAL=4  IBASO=0  NONORM=0  IDLCOR=2  KEEPCORE=0  SKIPD=3  LOCSNG= 0  LOCMUL=0  CANBLK=1  SHELLPERM=F

 Thresholds:

 THRLOC=  1.00D-06 (Smallest allowed eigenvalue in domain redundancy check)
 THRGAP=  1.00D-06 (Minimum eigenvalue gap in domain redundancy check)
 THRLOCT= 1.00D-06 (Smallest allowed eigenvalue in domain redundancy check of triples)
 THRGAPT= 1.00D-06 (Minimum eigenvalue gap in domain redundancy check of triples)
 THRORB=  1.00D-06 (Norm of projected orbitals)
 THRMP2=  1.00D-08 (Neglect of small Fock matrix elements)

 Orbital domain selection criteria:

 CHGFRAC=  0.985   CHGMIN=   0.010   CHGMINH=  0.030   CHGMAX=  0.500   CHGMIN_PAIRS=  0.200    MERGEDOM=0   CANBLK=1

 Weak and distant pair selection criteria:

 RCLOSE= 1.000   RWEAK= 3.000   RDIST= 8.000   RVDIST=15.000   KEEPCLS=0   KEEPCLS_3EXT=0   MP4CLS=0

 Options for approximating pair-single interactions:   JEDOM= 0   RMAX3X= 0.000   SKIPGE=0


 Pipek-Mezey localisation finished (npass= 11  nrot=   1638  Thresh=  0.10D-08  CPU=   0.01 sec)

 Ordering localized MOs according to charge centroids

 Generating projected atomic orbitals

 Deleting projected core orbital    1.1 (C 1s)    Norm=  0.13D-02
 Deleting projected core orbital   47.1 (C 1s)    Norm=  0.14D-02
 Deleting projected core orbital   93.1 (C 1s)    Norm=  0.11D-02
 Deleting projected core orbital  139.1 (N 1s)    Norm=  0.16D-02
 Deleting projected core orbital  185.1 (C 1s)    Norm=  0.11D-02
 Deleting projected core orbital  231.1 (N 1s)    Norm=  0.17D-02
 Deleting projected core orbital  277.1 (O 1s)    Norm=  0.12D-02

 Ranking of atoms according to Loewdin charges

 Orbital domains

   Orb.   Atom     Charge      Crit.
   8.1    1 C       0.90       0.000
          9 H       0.63       0.990
   9.1    1 C       0.88       0.000
         10 H       0.68       0.992
  10.1    2 C       0.84       0.000
          1 C       0.75       0.993
  11.1    1 C       0.82       0.000
          8 H       0.60       0.982
          2 C       0.27       0.994
  12.1    2 C       1.01       0.947
          3 C       0.45       0.984
          1 C       0.29       0.990
  13.1    3 C       0.82       0.000
          2 C       0.77       0.992
  14.1    3 C       0.86       0.000
         11 H       0.73       0.991
  15.1    7 O       1.42       0.996
  16.1    7 O       1.47       0.970
          5 C       0.28       0.984
          2 C       0.09       0.994
  17.1    7 O       1.36       0.954
          5 C       0.44       0.988
  18.1    4 N       0.94       0.000
          3 C       0.70       0.994
  19.1    7 O       1.17       0.000
          5 C       0.64       0.997
  20.1    4 N       1.12       0.933
          3 C       0.40       0.970
          5 C       0.32       0.991
  21.1    4 N       0.94       0.000
          5 C       0.66       0.991
  22.1    4 N       1.26       0.989
  23.1    6 N       0.94       0.000
          5 C       0.62       0.996
  24.1    6 N       1.23       0.992
  25.1    6 N       1.06       0.973
         13 H       0.48       0.993
  26.1    6 N       1.07       0.000
         12 H       0.52       0.992

 Number of strong pairs:          73
 Number of close pairs:           43     Rmin=      2.406
 Number of weak pairs:            68     Rmin=      3.610
 Number of distant pairs:          6     Rmin=      8.716

 FOCK MATRIX DIAGONALIZED IN THE SUBSPACE OF ORBITALS  17.1  19.1

 Average pair domain sizes:      147    (strong pairs: 125, close pairs: 173, weak pairs: 157, distant pairs: 128)

 Smallest S-eigenvalue of domains:  0.4842D-05   Pair:  37  Symmetry: 1

 CPU-time for pair domains:             2.07 SEC

 Distance criteria for operator lists:     RMAXJ=      8.00  RMAXK=      8.00  RMAXL=     15.00
 Distance criteria for operator domains:   RDOMJ=      0.00  RDOMK=      8.00

 Using operator domains:    iopdom=5   sdom=2  kextyp=0   triptyp=2

 Number of orbital pairs:        190
 Length of K(kl) list:           190
 Number of operators K(kl):      190 (192.88 MB)   Domain sizes:    min= 113  max= 453  average= 354
 Length of J(kl) list     :      190
 Number of operators J(kl):      184 ( 62.50 MB)   Domain sizes:    min=  90  max= 362  average= 202
 Number of y,z intermediates:    267
 Number of operators J/K(E):     267 (153.74 MB)   Domain sizes:    min= 135  max= 362  average= 219


 File size for 4-external integrals using center quadruplets:   11.672 GB

 icfit_3ext= 2  icfit_4ext= 2
 locfit_ccsd= 0  locfit_2ext= 0  locfit_3ext= 0  locfit_4ext= 0  locfit=-1

 Number of correlated orbitals:                 19
 Number of distant pair functions:               6  (treated by MP2)
 Number of weak pair functions:                 68  (treated by MP2)
 Number of strong pair functions:               73
 Total number of pair functions:               190
 Number of singly external local CSFs:        1623
 Number of doubly external local CSFs:     4371528 (all pairs)   2530580 (strong pairs)   1741426 (weak pairs)
 Total number of local CSFs:               4373152 (all pairs)   2532204 (strong pairs)

 Length of J-op  integral file:               3.30 MB
 Length of K-op  integral file:              56.34 MB

 Using 3-external integrals

 File size for 3-external integrals using MO/center triples:     4.088 GB

 AO-basis loaded. Number of functions:                 460

 Fitting-basis AUG-CC-PVTZ-MP2F loaded for 0-2-external integrals.

 Number of fitting functions:                     1018
 CPU time for 2-ext exchange integrals            8.47 sec, Elapsed time=      9.41 sec

 Using incore algorithm in dfasmbl_coul, locfit=0

 CPU time for 2-ext Coulomb integrals             7.49 sec, Elapsed time=      7.72 sec
 CPU time for DF-2ext transformation (total)     15.96 sec, Elapsed time=     17.13 sec
 Local fitting disabled for 3-ext integrals

 Fitting-basis AUG-CC-PVTZ-MP2F loaded for 3-external integrals.

 Number of fitting functions:                     1018
 CPU time for DF-3ext transformations           103.06 sec, Elapsed time=    124.29 sec (including assembly of 3ext integrals)

 Fitting-basis AUG-CC-PVTZ-MP2F loaded for 4-external integrals.

 Number of fitting functions:                     1018
 Distributing 4-ext file on two disks:           994992731           571536881          1566529612
 CPU time for DF-4ext transformations           194.83 sec, Elapsed time=    209.38 sec

 Treating distant pairs without multipole approximation.

 Minimum memory for LMP2:     19.59 MW, used:     40.43 MW

 Threshold for neglect of couplings:    0.10D-07     LMP2ALGO= 1   DYNAMIC=1  LIIS=0

 ITER.      SQ.NORM    CORR.ENERGY   TOTAL ENERGY   ENERGY CHANGE      VAR         THR        CPU    
   1      1.40359602    -1.29207483  -339.70292964    -1.29207483    0.40D+00    0.10D-04     0.50
   2      1.43365514    -1.32265141  -339.73350622    -0.03057658    0.71D-02    0.10D-04     6.53
   3      1.44552837    -1.33531250  -339.74616731    -0.01266109    0.24D-03    0.10D-04    12.53
   4      1.44608085    -1.33571927  -339.74657409    -0.00040677    0.24D-05    0.10D-06    18.56
   5      1.44612912    -1.33574621  -339.74660102    -0.00002693    0.56D-07    0.10D-07    24.56
   6      1.44613527    -1.33574940  -339.74660422    -0.00000319    0.15D-08    0.10D-07    30.56
   7      1.44613617    -1.33574986  -339.74660467    -0.00000046    0.39D-10    0.10D-07    36.56

 Computing Hylleraas functional

   8      1.44613617    -1.33574994  -339.74660475    -0.00000008    0.00D+00    0.10D-07    42.28

 CPU TIME FOR ITERATIVE MP2:   42.28 SEC, ELAPSED TIME:   42.82SEC

 MP2 energy of close pairs:            -0.05535899
 MP2 energy of weak pairs:             -0.02779677
 MP2 energy of distant pairs:          -0.00016305

 MP2 correlation energy:               -1.33574994
 MP2 total energy:                   -339.74660475

 LMP2 singlet pair energy              -0.82658442
 LMP2 triplet pair energy              -0.50916552

 SCS-LMP2 correlation energy:          -1.30871540   (PS=  1.200000  PT=  0.333333)
 SCS-LMP2 total energy:              -339.71957022

 Minimum Memory for K-operators:     3.25 MW Maximum memory for K-operators    25.28 MW  used:    25.28 MW
 Memory for amplitude vector:        1.28 MW

 Minimum memory for LCCSD:     8.32 MW, used:     59.15 MW, max:     57.87 MW

 ITER.      SQ.NORM     CORR.ENERGY   TOTAL ENERGY   ENERGY CHANGE        DEN1      VAR(S)    VAR(P)  DIIS     TIME
   1      1.44437269    -1.31575559  -339.72661040     0.01999435    -1.27912138  0.92D-02  0.73D-02  1  1   387.58
   2      1.47540985    -1.32126966  -339.73212447    -0.00551407    -0.02517847  0.43D-03  0.15D-02  2  2   426.53
   3      1.49553134    -1.32369445  -339.73454927    -0.00242479    -0.01040408  0.38D-03  0.43D-03  3  3   466.02
   4      1.50882378    -1.32434211  -339.73519692    -0.00064765    -0.00531042  0.14D-03  0.15D-03  4  4   504.56
   5      1.51924818    -1.32454457  -339.73539939    -0.00020247    -0.00311160  0.60D-04  0.52D-04  5  5   543.31
   6      1.52472756    -1.32458716  -339.73544197    -0.00004258    -0.00098308  0.20D-04  0.12D-04  6  6   581.94
   7      1.52703650    -1.32456949  -339.73542430     0.00001767    -0.00028323  0.62D-05  0.30D-05  6  1   620.97
   8      1.52808893    -1.32455773  -339.73541254     0.00001176    -0.00006026  0.26D-05  0.92D-06  6  2   659.18
   9      1.52848621    -1.32455338  -339.73540819     0.00000435     0.00002291  0.11D-05  0.24D-06  6  4   697.45
  10      1.52908253    -1.32455398  -339.73540879    -0.00000060    -0.00009935  0.45D-06  0.94D-07  6  3   736.24
  11      1.52927637    -1.32454755  -339.73540237     0.00000642    -0.00004521  0.16D-06  0.67D-07  6  5   774.68
  12      1.52927071    -1.32454550  -339.73540031     0.00000206    -0.00002101  0.80D-07  0.46D-07  6  6   813.62
  13      1.52919072    -1.32454630  -339.73540111    -0.00000080     0.00001527  0.26D-07  0.19D-07  6  1   852.19
  14      1.52914981    -1.32454807  -339.73540288    -0.00000177     0.00001168  0.10D-07  0.75D-08  6  6   890.70
  15      1.52909573    -1.32454898  -339.73540380    -0.00000091     0.00001601  0.47D-08  0.35D-08  6  2   928.70

 Norm of t1 vector:      0.16644786      S-energy:     0.00000019
 Norm of t2 vector:      0.70808957      P-energy:    -1.32455076

 RESULTS
 =======
  LDCSD singles energy                  0.000001783212
  LDCSD singlet pair energy            -0.936215310080
  LDCSD triplet pair energy            -0.471654275101

  LDCSD strong pair energy             -1.324550767326
  LMP2 close pair energy               -0.055358990343
  LMP2 weak pair energy                -0.027796774542
  LMP2 distant pair energy             -0.000163052970


  Reference energy                   -338.410854813532

  LDCSD correlation energy             -1.407867801969
 !LDCSD total energy                 -339.818722615502

 Program statistics:

 Available memory in ccsd:          1023943293
 Min. memory needed in ccsd:           8321363
 Max. memory used in ccsd:            59145627



 **********************************************************************************************************************************
 DATASETS  * FILE   NREC   LENGTH (MB)   RECORD NAMES
              1      18       37.94       500      610      700      900      950      970     1000      129      960     1100   
                                          VAR    BASINP    GEOM    SYMINP    ZMAT    AOBASIS   BASIS     P2S    ABASIS      S 
                                         1400     1410     1200     1210     1080     1600     1650     1700   
                                           T        V       H0       H01     AOSYM     SMH    MOLCAS    OPER   

              2       4        8.12       700     1000      520     2100   
                                         GEOM     BASIS   MCVARS     RHF  

 PROGRAMS   *        TOTAL  DF-LDCSD     DF-HF       INT
 CPU TIMES  *      1032.79    928.72    103.24      0.65
 REAL TIME  *      1215.23 SEC
 DISK USED  *        20.42 GB
 **********************************************************************************************************************************

 DF-LDCSD/aug-cc-pVTZ energy=   -339.818722615502

        DF-LDCSD           DF-HF
   -339.81872262   -338.41085481
 **********************************************************************************************************************************
 Molpro calculation terminated
