
 Primary working directories    : /var/tmp/pbs.368149.bp1/molpro.zczIeQRVYT
 Secondary working directories  : /var/tmp/pbs.368149.bp1/molpro.zczIeQRVYT
 Wavefunction directory         : /home/lb17101/molpro_test/inp/lowmem/
 Main file repository           : /home/lb17101/molpro_test/inp/lowmem/

 id        : uob

 Nodes                         nprocs
 bp1-01-09-01.data.bp.acrc.priv    1

 Using customized tuning parameters: mindgm=1; mindgv=20; mindgc=4; mindgr=1; noblas=0; minvec=7
 default implementation of scratch files=df  


 Variables initialized (934), CPU time= 0.00 sec
 geomtyp=xyz
 nosym
 noorient
 geometry={
  C       1.066350376182       0.667846545508       0.443143263865
  O       0.976331329043      -0.624636961262       0.922365517020
  C       0.104872153889      -1.270996216721       0.125034233415
  C      -0.970448021815      -0.461487523538      -0.235599092287
  O      -0.791255957195       1.227974639293      -1.425746560898
  H       0.960084345096       1.404656686646       1.347094863345
  H       1.845812080260       0.696007730948      -0.258354040745
  H      -0.173672345045       1.364710664448      -0.714175141536
  H       0.530167836295      -1.478391040432      -0.768805511281
  H      -0.121323755971      -2.289548315591       0.618247013024
  H      -1.685487815878      -0.794179111091      -0.908083604829
  H      -1.402700857726       0.008046997134       0.670004962946
  H      -1.509022750500       1.718677952731      -1.057402687255
 }
 basis=avtz
 local,thrbp=0.985
 df-hf
 df-ldcsd
 Commands  initialized (763), CPU time= 0.01 sec, 617 directives.
 Default parameters read. Elapsed time= 0.09 sec

 Checking input...
 Passed
1


                                         ***  PROGRAM SYSTEM MOLPRO  ***
                                       Copyright, TTI GmbH Stuttgart, 2015
                                    Version 2019.2 linked Oct 25 2019 22:50:27


 **********************************************************************************************************************************
 LABEL *                                                                                 
  64 bit serial version                                                                  DATE: 22-Sep-20          TIME: 20:31:41  
 **********************************************************************************************************************************

 SHA1:             8dbd9ae1082e4ce945b0f27595c9eb2d4aa09004
 **********************************************************************************************************************************
 SETTING GEOMTYP        =    XYZ

 Variable memory set to 1024000000 words,  buffer space 

 ZSYMEL=NOSYM

 SETTING BASIS          =    AVTZ


 Recomputing integrals since basis changed


 Using spherical harmonics

 Library entry C      S aug-cc-pVTZ          selected for orbital group  1
 Library entry C      P aug-cc-pVTZ          selected for orbital group  1
 Library entry C      D aug-cc-pVTZ          selected for orbital group  1
 Library entry C      F aug-cc-pVTZ          selected for orbital group  1
 Library entry O      S aug-cc-pVTZ          selected for orbital group  2
 Library entry O      P aug-cc-pVTZ          selected for orbital group  2
 Library entry O      D aug-cc-pVTZ          selected for orbital group  2
 Library entry O      F aug-cc-pVTZ          selected for orbital group  2
 Library entry H      S aug-cc-pVTZ          selected for orbital group  5
 Library entry H      P aug-cc-pVTZ          selected for orbital group  5
 Library entry H      D aug-cc-pVTZ          selected for orbital group  5


 PROGRAM * SEWARD (Integral evaluation for generally contracted gaussian basis sets)     Author: Roland Lindh, 1990

 Geometry written to block  1 of record 700


 Point group  C1  



 ATOMIC COORDINATES

 NR  ATOM    CHARGE       X              Y              Z

   1  C       6.00    2.015110164    1.262047064    0.837419403
   2  O       8.00    1.844998819   -1.180392784    1.743018214
   3  C       6.00    0.198179649   -2.401834755    0.236280457
   4  C       6.00   -1.833880979   -0.872085029   -0.445217760
   5  O       8.00   -1.495257054    2.320535756   -2.694270523
   6  H       1.00    1.814296469    2.654416437    2.545640356
   7  H       1.00    3.488079309    1.315263992   -0.488218380
   8  H       1.00   -0.328193168    2.578929395   -1.349595422
   9  H       1.00    1.001872011   -2.793754171   -1.452831859
  10  H       1.00   -0.229268671   -4.326619265    1.168317532
  11  H       1.00   -3.185110358   -1.500781014   -1.716029311
  12  H       1.00   -2.650720456    0.015206621    1.266125882
  13  H       1.00   -2.851639714    3.247830627   -1.998201482

 Bond lengths in Bohr (Angstrom)

 1-2  2.610471124  1-6  2.212925085  1-7  1.982368703  2-3  2.544443462  3-4  2.633219406
     ( 1.381401829)     ( 1.171029525)     ( 1.049024341)     ( 1.346461495)     ( 1.393439701)

  3- 9  1.911183576   3-10  2.180871520   4-11  1.958581496   4-12  2.093611775   5- 8  1.799154388
       ( 1.011354794)       ( 1.154067508)       ( 1.036436693)       ( 1.107891640)       ( 0.952071501)

  5-13  1.784421982
       ( 0.944275447)

 Bond angles

  1-2-3  106.61208951   2-1-6  108.36050155   2-1-7  107.78949170   2-3-4  111.95280045

  2- 3- 9  110.46474778   2- 3-10  107.30479126   3- 4-11  120.92024634   3- 4-12  109.61764989

  4- 3- 9  102.41041632   4- 3-10  118.16939002   6- 1- 7  124.52293819   8- 5-13   97.29022589

  9- 3-10  106.20922060  11- 4-12  113.40587481

 NUCLEAR CHARGE:                   42
 NUMBER OF PRIMITIVE AOS:         551
 NUMBER OF SYMMETRY AOS:          490
 NUMBER OF CONTRACTIONS:          414   (  414A   )
 NUMBER OF CORE ORBITALS:           5   (    5A   )
 NUMBER OF VALENCE ORBITALS:       28   (   28A   )


 NUCLEAR REPULSION ENERGY  195.60871917


 Eigenvalues of metric

         1 0.649E-05 0.114E-04 0.173E-04 0.246E-04 0.301E-04 0.326E-04 0.469E-04 0.586E-04


 OPERATOR DM      FOR CENTER  0  COORDINATES:    0.000000    0.000000    0.000000


 **********************************************************************************************************************************
 DATASETS  * FILE   NREC   LENGTH (MB)   RECORD NAMES
              1      18       36.47       500      610      700      900      950      970     1000      129      960     1100   
                                          VAR    BASINP    GEOM    SYMINP    ZMAT    AOBASIS   BASIS     P2S    ABASIS      S 
                                         1400     1410     1200     1210     1080     1600     1650     1700   
                                           T        V       H0       H01     AOSYM     SMH    MOLCAS    OPER   

 PROGRAMS   *        TOTAL       INT
 CPU TIMES  *         0.71      0.56
 REAL TIME  *         2.30 SEC
 DISK USED  *        37.06 MB
 **********************************************************************************************************************************


 PROGRAM * RHF-SCF (CLOSED SHELL)       Authors: W. Meyer, H.-J. Werner


 NUMBER OF ELECTRONS:      21+   21-    SPACE SYMMETRY=1    SPIN SYMMETRY: Singlet 
 CONVERGENCE THRESHOLDS:    1.00E-05 (Density)    1.00E-07 (Energy)
 INTEGRAL THRESHOLDS:       1.00E-11 (Initial)    1.00E-11 (Final)
 MAX. NUMBER OF ITERATIONS:       60
 INTERPOLATION TYPE:            DIIS
 INTERPOLATION STEPS:              2 (START)      1 (STEP)
 LEVEL SHIFTS:                  0.00 (CLOSED)  0.00 (OPEN) 




 Basis set AUG-CC-PVTZ/JKFIT generated.  Number of basis functions:   888 

 Orbital guess generated from atomic densities. Full valence occupancy:   33
 Using density fitting in orbital guess

 Coulomb and exchange fitting
 Thresholds for fitting:       THRAO_COUL= 1.0D-14    THRAO_EXCH= 1.0D-12    THRMO= 1.0D-11    THRPROD= 1.0D-11    THRASM= 1.0D-11
                               THR2HLF=    1.0D-11

 Molecular orbital dump at record        2100.2

 Initial occupancy:  21

 ITERATION   DDIFF            GRAD            ENERGY        2-EL.EN.            DIPOLE MOMENTS         DIIS   CPU(IT)  CPU(TOT)  ORB.
    1      0.000D+00      0.000D+00      -267.73593862    582.748400   -1.62567    0.15058   -0.02585    0      3.0      6.4     start
    2      0.000D+00      0.303D-02      -267.80253991    578.086198   -1.20725   -0.14011   -0.25010    1      3.0      9.4     diag
    3      0.402D-02      0.158D-02      -267.81728882    580.377967   -1.35021   -0.14277   -0.15494    2      3.1     12.5     diag
    4      0.118D-02      0.442D-03      -267.81942757    580.057722   -1.38777   -0.17559   -0.17860    3      3.0     15.6     diag
    5      0.569D-03      0.961D-04      -267.81965789    579.995170   -1.40031   -0.19676   -0.18319    4      3.0     18.6     diag
    6      0.171D-03      0.423D-04      -267.81971752    580.028051   -1.42385   -0.21008   -0.19185    5      3.0     21.7     diag
    7      0.825D-04      0.285D-04      -267.81974227    580.015153   -1.43402   -0.21645   -0.19352    6      3.1     24.7     diag
    8      0.566D-04      0.114D-04      -267.81975125    580.009276   -1.44631   -0.22364   -0.19883    7      3.1     27.8     diag
    9      0.384D-04      0.770D-05      -267.81975344    580.013386   -1.45121   -0.22620   -0.20026    8      3.1     30.9     diag
   10      0.212D-04      0.260D-05      -267.81975382    580.010983   -1.45376   -0.22750   -0.20115    9      3.0     33.9     orth
   11      0.876D-05      0.104D-05      -267.81975386    580.010995   -1.45446   -0.22788   -0.20150    9      3.0     36.9     diag
   12      0.338D-05      0.373D-06      -267.81975387    580.011180   -1.45454   -0.22797   -0.20146    0      3.0     39.9     orth

 Final occupancy:  21

 !RHF STATE  1.1 Energy              -267.819753867459
 Nuclear energy                       195.60871917
 One-electron energy                 -753.43406326
 Two-electron energy                  290.00559022
 Virial quotient                       -0.99861492
 !RHF STATE  1.1 Dipole moment         -1.45454166    -0.22796735    -0.20145733
 Dipole moment /Debye                  -3.69683400    -0.57939725    -0.51201993

 Orbital energies:

         1.1          2.1          3.1          4.1          5.1          6.1          7.1          8.1          9.1         10.1
    -20.573601   -20.539424   -11.327354   -11.274597   -11.228220    -1.402705    -1.385675    -1.069306    -0.905788    -0.814743

        11.1         12.1         13.1         14.1         15.1         16.1         17.1         18.1         19.1         20.1
     -0.733379    -0.708408    -0.661263    -0.644191    -0.615075    -0.570690    -0.557842    -0.517214    -0.508084    -0.413837

        21.1         22.1         23.1
     -0.260043     0.021246     0.033732


 HOMO     21.1    -0.260043 =      -7.0761eV
 LUMO     22.1     0.021246 =       0.5781eV
 LUMO-HOMO         0.281289 =       7.6543eV


 **********************************************************************************************************************************
 DATASETS  * FILE   NREC   LENGTH (MB)   RECORD NAMES
              1      18       36.47       500      610      700      900      950      970     1000      129      960     1100   
                                          VAR    BASINP    GEOM    SYMINP    ZMAT    AOBASIS   BASIS     P2S    ABASIS      S 
                                         1400     1410     1200     1210     1080     1600     1650     1700   
                                           T        V       H0       H01     AOSYM     SMH    MOLCAS    OPER   

              2       4        7.14       700     1000      520     2100   
                                         GEOM     BASIS   MCVARS     RHF  

 PROGRAMS   *        TOTAL     DF-HF       INT
 CPU TIMES  *        40.67     39.96      0.56
 REAL TIME  *        43.96 SEC
 DISK USED  *       141.86 MB
 **********************************************************************************************************************************


 Input parameters for LOCAL:

 LOCAL  =   -1.000000
 THRLOC =   -1.000000

 PROGRAM * CCSD (Closed-shell coupled cluster)     Authors: C. Hampel, H.-J. Werner, 1991, M. Deegan, P.J. Knowles, 1992

                    Density fitting coupled cluster methods (ITF), W. Gyorffy, 2015

                              Local implementation by C. Hampel and H.-J. Werner, 1996
                                    M. Schuetz, G. Hetzer, and H.-J. Werner, 1999
                              Distinguishable Cluster modification by D. Kats, 2013

 Setting use_dist= 1

 Basis set AUG-CC-PVTZ/MP2FIT generated. Number of basis functions:   898 

 Convergence thresholds:  THRVAR = 1.00D-08  THRDEN = 1.00D-06

 Number of core orbitals:           5 (   5 )
 Number of closed-shell orbitals:  16 (  16 )
 Number of external orbitals:     393 ( 393 )

 Molecular orbitals read from record     2100.2  Type=RHF/CANONICAL (state 1.1)

 Options for lccsd:

   local=       4
   iopdom=      5
   isdom=       2
   i3ext=       3
   i4ext=       1

 Using operators K(Cij)  

 Local correlation treatment
 ===========================

 LOCAL=4  IBASO=0  NONORM=0  IDLCOR=2  KEEPCORE=0  SKIPD=3  LOCSNG= 0  LOCMUL=0  CANBLK=1  SHELLPERM=F

 Thresholds:

 THRLOC=  1.00D-06 (Smallest allowed eigenvalue in domain redundancy check)
 THRGAP=  1.00D-06 (Minimum eigenvalue gap in domain redundancy check)
 THRLOCT= 1.00D-06 (Smallest allowed eigenvalue in domain redundancy check of triples)
 THRGAPT= 1.00D-06 (Minimum eigenvalue gap in domain redundancy check of triples)
 THRORB=  1.00D-06 (Norm of projected orbitals)
 THRMP2=  1.00D-08 (Neglect of small Fock matrix elements)

 Orbital domain selection criteria:

 CHGFRAC=  0.985   CHGMIN=   0.010   CHGMINH=  0.030   CHGMAX=  0.500   CHGMIN_PAIRS=  0.200    MERGEDOM=0   CANBLK=1

 Weak and distant pair selection criteria:

 RCLOSE= 1.000   RWEAK= 3.000   RDIST= 8.000   RVDIST=15.000   KEEPCLS=0   KEEPCLS_3EXT=0   MP4CLS=0

 Options for approximating pair-single interactions:   JEDOM= 0   RMAX3X= 0.000   SKIPGE=0


 Pipek-Mezey localisation finished (npass= 10  nrot=   1049  Thresh=  0.10D-08  CPU=   0.01 sec)

 Ordering localized MOs according to charge centroids

 Generating projected atomic orbitals

 Deleting projected core orbital    1.1 (C 1s)    Norm=  0.14D-02
 Deleting projected core orbital   47.1 (O 1s)    Norm=  0.13D-02
 Deleting projected core orbital   93.1 (C 1s)    Norm=  0.15D-02
 Deleting projected core orbital  139.1 (C 1s)    Norm=  0.16D-02
 Deleting projected core orbital  185.1 (O 1s)    Norm=  0.12D-02

 Ranking of atoms according to Loewdin charges

 Orbital domains

   Orb.   Atom     Charge      Crit.
   6.1    3 C       0.88       0.000
         10 H       0.64       0.993
   7.1    3 C       0.90       0.000
          9 H       0.63       0.987
   8.1    4 C       0.75       0.000
          3 C       0.71       0.994
   9.1    2 O       1.08       0.000
          3 C       0.55       0.995
  10.1    2 O       1.36       0.994
  11.1    4 C       0.94       0.000
         11 H       0.69       0.995
  12.1    2 O       1.53       0.982
          3 C       0.21       0.992
  13.1    2 O       1.12       0.000
          1 C       0.54       0.995
  14.1    4 C       0.92       0.000
         12 H       0.64       0.994
  15.1    1 C       0.78       0.868
          4 C       0.29       0.973
          8 H       0.18       0.987
  16.1    1 C       0.96       0.000
          7 H       0.71       0.993
  17.1    5 O       1.39       0.976
          8 H       0.20       0.981
         13 H       0.19       0.984
          4 C       0.12       0.996
  18.1    5 O       1.28       0.998
  19.1    1 C       0.92       0.000
          6 H       0.73       0.993
  20.1    5 O       1.29       0.981
          8 H       0.41       0.993
  21.1    5 O       1.24       0.990

 Number of strong pairs:          54
 Number of close pairs:           31     Rmin=      1.799
 Number of weak pairs:            51     Rmin=      3.465

 FOCK MATRIX DIAGONALIZED IN THE SUBSPACE OF ORBITALS   9.1  12.1
 FOCK MATRIX DIAGONALIZED IN THE SUBSPACE OF ORBITALS  18.1  21.1

 Average pair domain sizes:      130    (strong pairs: 108, close pairs: 161, weak pairs: 136, distant pairs:   0)

 Smallest S-eigenvalue of domains:  0.1591D-05   Pair:  96  Symmetry: 1

 CPU-time for pair domains:             0.71 SEC

 Distance criteria for operator lists:     RMAXJ=      8.00  RMAXK=      8.00  RMAXL=     15.00
 Distance criteria for operator domains:   RDOMJ=      0.00  RDOMK=      8.00

 Using operator domains:    iopdom=5   sdom=2  kextyp=0   triptyp=2

 Number of orbital pairs:        136
 Length of K(kl) list:           136
 Number of operators K(kl):      136 (121.91 MB)   Domain sizes:    min=  90  max= 409  average= 333
 Number of operators J(kl):      136 ( 34.81 MB)   Domain sizes:    min=  90  max= 363  average= 176
 Number of y,z intermediates:    200
 Number of operators J/K(E):     200 ( 83.91 MB)   Domain sizes:    min= 113  max= 363  average= 189


 File size for 4-external integrals using center quadruplets:    6.948 GB

 icfit_3ext= 2  icfit_4ext= 2
 locfit_ccsd= 0  locfit_2ext= 0  locfit_3ext= 0  locfit_4ext= 0  locfit=-1

 Number of correlated orbitals:                 16
 Number of weak pair functions:                 51  (treated by MP2)
 Number of strong pair functions:               54
 Total number of pair functions:               136
 Number of singly external local CSFs:        1220
 Number of doubly external local CSFs:     2454019 (all pairs)   1474759 (strong pairs)    979260 (weak pairs)
 Total number of local CSFs:               2455240 (all pairs)   1475980 (strong pairs)

 Length of J-op  integral file:               2.68 MB
 Length of K-op  integral file:              37.06 MB

 Using 3-external integrals

 File size for 3-external integrals using MO/center triples:     2.865 GB

 AO-basis loaded. Number of functions:                 414

 Fitting-basis AUG-CC-PVTZ-MP2F loaded for 0-2-external integrals.

 Number of fitting functions:                      898
 CPU time for 2-ext exchange integrals            3.21 sec, Elapsed time=      3.73 sec

 Using incore algorithm in dfasmbl_coul, locfit=0

 CPU time for 2-ext Coulomb integrals             2.67 sec, Elapsed time=      2.73 sec
 CPU time for DF-2ext transformation (total)      5.88 sec, Elapsed time=      6.46 sec
 Local fitting disabled for 3-ext integrals

 Fitting-basis AUG-CC-PVTZ-MP2F loaded for 3-external integrals.

 Number of fitting functions:                      898
 CPU time for DF-3ext transformations            38.04 sec, Elapsed time=     64.85 sec (including assembly of 3ext integrals)

 Fitting-basis AUG-CC-PVTZ-MP2F loaded for 4-external integrals.

 Number of fitting functions:                      898
 Distributing 4-ext file on two disks:           471571686           461013324           932585010
 CPU time for DF-4ext transformations            57.86 sec, Elapsed time=     65.83 sec

 Minimum memory for LMP2:     11.46 MW, used:     24.93 MW

 Threshold for neglect of couplings:    0.10D-07     LMP2ALGO= 1   DYNAMIC=1  LIIS=0

 ITER.      SQ.NORM    CORR.ENERGY   TOTAL ENERGY   ENERGY CHANGE      VAR         THR        CPU    
   1      1.27995045    -1.01894026  -268.83869412    -1.01894026    0.28D+00    0.10D-04     0.12
   2      1.29904045    -1.03877912  -268.85853299    -0.01983886    0.48D-02    0.10D-04     1.35
   3      1.30849830    -1.04796819  -268.86772206    -0.00918907    0.30D-03    0.10D-04     2.56
   4      1.30928525    -1.04835981  -268.86811367    -0.00039162    0.83D-05    0.10D-06     3.77
   5      1.30939332    -1.04840154  -268.86815541    -0.00004173    0.24D-06    0.10D-07     4.99
   6      1.30941272    -1.04840893  -268.86816280    -0.00000739    0.89D-08    0.10D-07     6.20
   7      1.30941589    -1.04841009  -268.86816396    -0.00000116    0.28D-09    0.10D-07     7.41
   8      1.30941645    -1.04841030  -268.86816417    -0.00000021    0.91D-11    0.10D-07     8.62

 Computing Hylleraas functional

   9      1.30941645    -1.04841034  -268.86816421    -0.00000004    0.00D+00    0.10D-07     9.81

 CPU TIME FOR ITERATIVE MP2:    9.81 SEC, ELAPSED TIME:   10.02SEC

 MP2 energy of close pairs:            -0.04835493
 MP2 energy of weak pairs:             -0.01730284

 MP2 correlation energy:               -1.04841034
 MP2 total energy:                   -268.86816421

 LMP2 singlet pair energy              -0.66484963
 LMP2 triplet pair energy              -0.38356071

 SCS-LMP2 correlation energy:          -1.03647956   (PS=  1.200000  PT=  0.333333)
 SCS-LMP2 total energy:              -268.85623342

 Minimum Memory for K-operators:     2.33 MW Maximum memory for K-operators    15.98 MW  used:    15.98 MW
 Memory for amplitude vector:        0.69 MW

 Minimum memory for LCCSD:     5.70 MW, used:     37.12 MW, max:     36.43 MW

 ITER.      SQ.NORM     CORR.ENERGY   TOTAL ENERGY   ENERGY CHANGE        DEN1      VAR(S)    VAR(P)  DIIS     TIME
   1      1.30967075    -1.03901942  -268.85877328     0.00939093    -1.01351413  0.63D-02  0.44D-02  1  1   124.21
   2      1.32695859    -1.04339971  -268.86315357    -0.00438029    -0.01507254  0.44D-03  0.93D-03  2  2   140.46
   3      1.34089718    -1.04487746  -268.86463133    -0.00147775    -0.00821608  0.42D-03  0.35D-03  3  3   156.62
   4      1.35349069    -1.04566638  -268.86542025    -0.00078892    -0.00494376  0.26D-03  0.17D-03  4  4   172.72
   5      1.35967845    -1.04620124  -268.86595511    -0.00053486    -0.00113435  0.15D-03  0.78D-04  5  5   188.90
   6      1.36482029    -1.04647268  -268.86622655    -0.00027144     0.00035897  0.11D-03  0.50D-04  6  6   205.17
   7      1.37265357    -1.04678042  -268.86653429    -0.00030774    -0.00140806  0.69D-04  0.34D-04  6  1   221.30
   8      1.38804494    -1.04693520  -268.86668906    -0.00015477    -0.00231744  0.35D-04  0.18D-04  6  2   237.30
   9      1.38875632    -1.04702163  -268.86677550    -0.00008643    -0.00012311  0.35D-05  0.24D-05  6  4   253.43
  10      1.39423460    -1.04702810  -268.86678196    -0.00000647    -0.00049528  0.29D-05  0.16D-05  6  3   269.42
  11      1.39467040    -1.04700815  -268.86676202     0.00001994    -0.00002301  0.16D-06  0.16D-06  6  5   285.28
  12      1.39538780    -1.04700789  -268.86676176     0.00000026    -0.00006511  0.81D-07  0.56D-07  6  6   301.35
  13      1.39575820    -1.04700151  -268.86675537     0.00000639    -0.00004907  0.18D-07  0.13D-07  6  4   317.31
  14      1.39578344    -1.04699870  -268.86675257     0.00000281    -0.00000306  0.38D-08  0.12D-08  6  1   333.60
  15      1.39580423    -1.04699849  -268.86675236     0.00000021     0.00000064  0.72D-09  0.45D-09  6  2   349.78

 Norm of t1 vector:      0.19870381      S-energy:     0.00000023
 Norm of t2 vector:      0.59692632      P-energy:    -1.04699924

 RESULTS
 =======
  LDCSD singles energy                  0.000000751723
  LDCSD singlet pair energy            -0.751718547748
  LDCSD triplet pair energy            -0.360938462862

  LDCSD strong pair energy             -1.046999243838
  LMP2 close pair energy               -0.048354925798
  LMP2 weak pair energy                -0.017302840975


  Reference energy                   -267.819753867460

  LDCSD correlation energy             -1.112656258887
 !LDCSD total energy                 -268.932410126347

 Program statistics:

 Available memory in ccsd:          1023948411
 Min. memory needed in ccsd:           5695403
 Max. memory used in ccsd:            37123793



 **********************************************************************************************************************************
 DATASETS  * FILE   NREC   LENGTH (MB)   RECORD NAMES
              1      18       36.47       500      610      700      900      950      970     1000      129      960     1100   
                                          VAR    BASINP    GEOM    SYMINP    ZMAT    AOBASIS   BASIS     P2S    ABASIS      S 
                                         1400     1410     1200     1210     1080     1600     1650     1700   
                                           T        V       H0       H01     AOSYM     SMH    MOLCAS    OPER   

              2       4        7.14       700     1000      520     2100   
                                         GEOM     BASIS   MCVARS     RHF  

 PROGRAMS   *        TOTAL  DF-LDCSD     DF-HF       INT
 CPU TIMES  *       390.52    349.82     39.96      0.56
 REAL TIME  *       497.78 SEC
 DISK USED  *        12.96 GB
 **********************************************************************************************************************************

 DF-LDCSD/aug-cc-pVTZ energy=   -268.932410126347

        DF-LDCSD           DF-HF
   -268.93241013   -267.81975387
 **********************************************************************************************************************************
 Molpro calculation terminated
