
 Primary working directories    : /var/tmp/pbs.368154.bp1/molpro.jrsX0bu7Lv
 Secondary working directories  : /var/tmp/pbs.368154.bp1/molpro.jrsX0bu7Lv
 Wavefunction directory         : /home/lb17101/molpro_test/inp/lowmem/
 Main file repository           : /home/lb17101/molpro_test/inp/lowmem/

 id        : uob

 Nodes                         nprocs
 bp1-13-13-02.data.bp.acrc.priv    1

 Using customized tuning parameters: mindgm=1; mindgv=20; mindgc=4; mindgr=1; noblas=0; minvec=7
 default implementation of scratch files=df  


 Variables initialized (934), CPU time= 0.01 sec
 geomtyp=xyz
 nosym
 noorient
 geometry={
  C      -1.840573378251       0.128601401846      -0.266969348729
  C      -0.641467697320      -0.584593813704      -0.829351626875
  O      -0.340877267224      -1.076800509025      -1.829304568379
  C       0.452772272033       0.259660103435      -0.329687188357
  O       0.653537303955       1.405590490465       0.531302724847
  C       1.227998090875      -0.965421713499       0.499024552574
  O       1.941530254299       0.042442958436       1.524546218334
  H      -1.462920332983      -0.011809819216       0.706685587195
  H      -2.548497553683       1.231393118008       0.119117938553
  H      -2.288440981337      -0.692280758374      -0.978996138734
  H       1.145174083299      -0.068506072503      -1.194196644009
  H       2.221713582024       1.475751985950       1.011523325425
  H       2.981587456336      -0.853684642087       1.455103168221
 }
 basis=avqz
 local,thrbp=0.99
 df-hf
 df-ldcsd
 Commands  initialized (763), CPU time= 0.00 sec, 617 directives.
 Default parameters read. Elapsed time= 0.17 sec

 Checking input...
 Passed
1


                                         ***  PROGRAM SYSTEM MOLPRO  ***
                                       Copyright, TTI GmbH Stuttgart, 2015
                                    Version 2019.2 linked Oct 25 2019 22:50:27


 **********************************************************************************************************************************
 LABEL *                                                                                 
  64 bit serial version                                                                  DATE: 22-Sep-20          TIME: 20:35:43  
 **********************************************************************************************************************************

 SHA1:             8dbd9ae1082e4ce945b0f27595c9eb2d4aa09004
 **********************************************************************************************************************************
 SETTING GEOMTYP        =    XYZ

 Variable memory set to 1024000000 words,  buffer space 

 ZSYMEL=NOSYM

 SETTING BASIS          =    AVQZ


 Recomputing integrals since basis changed


 Using spherical harmonics

 Library entry C      S aug-cc-pVQZ          selected for orbital group  1
 Library entry C      P aug-cc-pVQZ          selected for orbital group  1
 Library entry C      D aug-cc-pVQZ          selected for orbital group  1
 Library entry C      F aug-cc-pVQZ          selected for orbital group  1
 Library entry C      G aug-cc-pVQZ          selected for orbital group  1
 Library entry O      S aug-cc-pVQZ          selected for orbital group  2
 Library entry O      P aug-cc-pVQZ          selected for orbital group  2
 Library entry O      D aug-cc-pVQZ          selected for orbital group  2
 Library entry O      F aug-cc-pVQZ          selected for orbital group  2
 Library entry O      G aug-cc-pVQZ          selected for orbital group  2
 Library entry H      S aug-cc-pVQZ          selected for orbital group  7
 Library entry H      P aug-cc-pVQZ          selected for orbital group  7
 Library entry H      D aug-cc-pVQZ          selected for orbital group  7
 Library entry H      F aug-cc-pVQZ          selected for orbital group  7


 PROGRAM * SEWARD (Integral evaluation for generally contracted gaussian basis sets)     Author: Roland Lindh, 1990

 Geometry written to block  1 of record 700


 Point group  C1  



 ATOMIC COORDINATES

 NR  ATOM    CHARGE       X              Y              Z

   1  C       6.00   -3.478179597    0.243021429   -0.504498953
   2  C       6.00   -1.212198266   -1.104722202   -1.567247436
   3  O       8.00   -0.644164677   -2.034858053   -3.456884633
   4  C       6.00    0.855615591    0.490686481   -0.623018493
   5  O       8.00    1.235006517    2.656181070    1.004016639
   6  C       6.00    2.320580073   -1.824382633    0.943019734
   7  O       8.00    3.668960443    0.080205567    2.880974817
   8  H       1.00   -2.764518771   -0.022317324    1.335442216
   9  H       1.00   -4.815962406    2.326995745    0.225100280
  10  H       1.00   -4.324526707   -1.308221035   -1.850034579
  11  H       1.00    2.164065382   -0.129457715   -2.256704596
  12  H       1.00    4.198430197    2.788767081    1.911502054
  13  H       1.00    5.634383709   -1.613230170    2.749746471

 Bond lengths in Bohr (Angstrom)

  1- 2  2.842625305   1- 8  1.991255868   1- 9  2.581651958   1-10  2.221063424   2- 3  2.181408626
       ( 1.504252531)       ( 1.053727226)       ( 1.366151383)       ( 1.175336148)       ( 1.154351733)

  2- 4  2.777184061   4- 5  2.735058978   4- 6  3.155652336   4-11  2.183013963   6- 7  3.033357173
       ( 1.469622516)       ( 1.447330882)       ( 1.669899302)       ( 1.155201241)       ( 1.605183489)

 Bond angles

  1-2-3  137.18832835   1-2-4  101.18939038   2-1-8   89.80407349   2-1-9  154.34916256

  2- 1-10   75.29345858   2- 4- 5  139.49755468   2- 4- 6   95.33264109   2- 4-11   91.64155092

  3- 2- 4  110.21746418   4- 6- 7   93.59965854   5- 4- 6  102.78171756   5- 4-11  125.94186059

  6- 4-11   83.38064692   8- 1- 9   91.84224528   8- 1-10  127.10479336   9- 1-10  122.51587499

 NUCLEAR CHARGE:                   54
 NUMBER OF PRIMITIVE AOS:        1168
 NUMBER OF SYMMETRY AOS:          939
 NUMBER OF CONTRACTIONS:          836   (  836A   )
 NUMBER OF CORE ORBITALS:           7   (    7A   )
 NUMBER OF VALENCE ORBITALS:       34   (   34A   )


 NUCLEAR REPULSION ENERGY  296.29260924


 Eigenvalues of metric

         1 0.154E-05 0.266E-05 0.348E-05 0.386E-05 0.516E-05 0.711E-05 0.957E-05 0.118E-04


 OPERATOR DM      FOR CENTER  0  COORDINATES:    0.000000    0.000000    0.000000


 **********************************************************************************************************************************
 DATASETS  * FILE   NREC   LENGTH (MB)   RECORD NAMES
              1      18       55.63       500      610      700      900      950      970     1000      129      960     1100   
                                          VAR    BASINP    GEOM    SYMINP    ZMAT    AOBASIS   BASIS     P2S    ABASIS      S 
                                         1400     1410     1200     1210     1080     1600     1650     1700   
                                           T        V       H0       H01     AOSYM     SMH    MOLCAS    OPER   

 PROGRAMS   *        TOTAL       INT
 CPU TIMES  *         0.87      0.79
 REAL TIME  *         2.32 SEC
 DISK USED  *        56.38 MB
 **********************************************************************************************************************************


 PROGRAM * RHF-SCF (CLOSED SHELL)       Authors: W. Meyer, H.-J. Werner


 NUMBER OF ELECTRONS:      27+   27-    SPACE SYMMETRY=1    SPIN SYMMETRY: Singlet 
 CONVERGENCE THRESHOLDS:    1.00E-05 (Density)    1.00E-07 (Energy)
 INTEGRAL THRESHOLDS:       1.00E-12 (Initial)    1.00E-12 (Final)
 MAX. NUMBER OF ITERATIONS:       60
 INTERPOLATION TYPE:            DIIS
 INTERPOLATION STEPS:              2 (START)      1 (STEP)
 LEVEL SHIFTS:                  0.00 (CLOSED)  0.00 (OPEN) 




 Basis set AUG-CC-PVQZ/JKFIT generated.  Number of basis functions:   1450 

 Orbital guess generated from atomic densities. Full valence occupancy:   41
 Using density fitting in orbital guess

 Coulomb and exchange fitting
 Thresholds for fitting:       THRAO_COUL= 1.0D-15    THRAO_EXCH= 1.0D-13    THRMO= 1.0D-12    THRPROD= 1.0D-12    THRASM= 1.0D-12
                               THR2HLF=    1.0D-12

 Molecular orbital dump at record        2100.2

 Initial occupancy:  27

 ITERATION   DDIFF            GRAD            ENERGY        2-EL.EN.            DIPOLE MOMENTS         DIIS   CPU(IT)  CPU(TOT)  ORB.
    1      0.000D+00      0.000D+00      -378.79712816    869.800818    1.60253   -0.52603    1.47124    0     15.8     33.6     start
    2      0.000D+00      0.299D-02      -378.88823160    859.429203    0.55791    1.26930    0.52330    1     16.1     49.7     diag
    3      0.277D-02      0.263D-02      -379.00340869    864.793509    1.01710    0.03281    0.70411    2     15.9     65.7     diag
    4      0.129D-02      0.399D-03      -379.01110491    864.231355    0.97111    0.16725    0.75414    3     16.1     81.8     diag
    5      0.364D-03      0.205D-03      -379.01331661    864.392466    0.98268    0.10554    0.65960    4     16.4     98.2     diag
    6      0.191D-03      0.103D-03      -379.01413015    864.245926    0.95561    0.11557    0.67117    5     16.1    114.2     diag
    7      0.132D-03      0.406D-04      -379.01430753    864.304115    0.95441    0.10908    0.65516    6     16.2    130.4     diag
    8      0.724D-04      0.202D-04      -379.01433322    864.274751    0.95043    0.11064    0.65424    7     16.2    146.6     diag
    9      0.254D-04      0.891D-05      -379.01433982    864.275629    0.94684    0.10943    0.65353    8     16.1    162.7     diag
   10      0.130D-04      0.428D-05      -379.01434171    864.279873    0.94659    0.10897    0.65307    9     16.1    178.9     orth
   11      0.613D-05      0.225D-05      -379.01434258    864.277809    0.94574    0.10912    0.65269    9     16.0    194.9     diag
   12      0.466D-05      0.130D-05      -379.01434291    864.277813    0.94554    0.10881    0.65310    9     16.1    210.9     diag
   13      0.313D-05      0.739D-06      -379.01434304    864.278448    0.94547    0.10880    0.65316    9     16.0    227.0     diag
   14      0.220D-05      0.416D-06      -379.01434306    864.277893    0.94548    0.10886    0.65328    9     15.9    242.9     diag
   15      0.102D-05      0.210D-06      -379.01434307    864.278407    0.94552    0.10877    0.65330    0     16.0    258.9     orth

 Final occupancy:  27

 !RHF STATE  1.1 Energy              -379.014343066107
 Nuclear energy                       296.29260924
 One-electron energy                -1107.44615604
 Two-electron energy                  432.13920374
 Virial quotient                       -1.00255112
 !RHF STATE  1.1 Dipole moment          0.94551550     0.10877498     0.65329868
 Dipole moment /Debye                   2.40310328     0.27646031     1.66041087

 Orbital energies:

         1.1          2.1          3.1          4.1          5.1          6.1          7.1          8.1          9.1         10.1
    -20.660823   -20.572632   -20.533130   -11.378314   -11.363330   -11.298216   -11.260659    -1.466159    -1.348230    -1.252429

        11.1         12.1         13.1         14.1         15.1         16.1         17.1         18.1         19.1         20.1
     -1.068435    -0.976935    -0.795976    -0.731372    -0.672811    -0.665608    -0.649256    -0.606337    -0.602590    -0.573366

        21.1         22.1         23.1         24.1         25.1         26.1         27.1         28.1         29.1
     -0.523135    -0.514041    -0.470171    -0.450556    -0.412902    -0.386057    -0.350404     0.002317     0.026890


 HOMO     27.1    -0.350404 =      -9.5350eV
 LUMO     28.1     0.002317 =       0.0630eV
 LUMO-HOMO         0.352721 =       9.5980eV


 **********************************************************************************************************************************
 DATASETS  * FILE   NREC   LENGTH (MB)   RECORD NAMES
              1      18       55.63       500      610      700      900      950      970     1000      129      960     1100   
                                          VAR    BASINP    GEOM    SYMINP    ZMAT    AOBASIS   BASIS     P2S    ABASIS      S 
                                         1400     1410     1200     1210     1080     1600     1650     1700   
                                           T        V       H0       H01     AOSYM     SMH    MOLCAS    OPER   

              2       4       19.90       700     1000      520     2100   
                                         GEOM     BASIS   MCVARS     RHF  

 PROGRAMS   *        TOTAL     DF-HF       INT
 CPU TIMES  *       259.99    259.12      0.79
 REAL TIME  *       269.53 SEC
 DISK USED  *       475.34 MB
 **********************************************************************************************************************************


 Input parameters for LOCAL:

 LOCAL  =   -1.000000
 THRLOC =   -1.000000

 PROGRAM * CCSD (Closed-shell coupled cluster)     Authors: C. Hampel, H.-J. Werner, 1991, M. Deegan, P.J. Knowles, 1992

                    Density fitting coupled cluster methods (ITF), W. Gyorffy, 2015

                              Local implementation by C. Hampel and H.-J. Werner, 1996
                                    M. Schuetz, G. Hetzer, and H.-J. Werner, 1999
                              Distinguishable Cluster modification by D. Kats, 2013

 Setting use_dist= 1

 Basis set AUG-CC-PVQZ/MP2FIT generated. Number of basis functions:   1656 

 Convergence thresholds:  THRVAR = 1.00D-08  THRDEN = 1.00D-06

 Number of core orbitals:           7 (   7 )
 Number of closed-shell orbitals:  20 (  20 )
 Number of external orbitals:     809 ( 809 )

 Molecular orbitals read from record     2100.2  Type=RHF/CANONICAL (state 1.1)

 Options for lccsd:

   local=       4
   iopdom=      5
   isdom=       2
   i3ext=       3
   i4ext=       1

 Using operators K(Cij)  

 Local correlation treatment
 ===========================

 LOCAL=4  IBASO=0  NONORM=0  IDLCOR=2  KEEPCORE=0  SKIPD=3  LOCSNG= 0  LOCMUL=0  CANBLK=1  SHELLPERM=F

 Thresholds:

 THRLOC=  1.00D-06 (Smallest allowed eigenvalue in domain redundancy check)
 THRGAP=  1.00D-06 (Minimum eigenvalue gap in domain redundancy check)
 THRLOCT= 1.00D-06 (Smallest allowed eigenvalue in domain redundancy check of triples)
 THRGAPT= 1.00D-06 (Minimum eigenvalue gap in domain redundancy check of triples)
 THRORB=  1.00D-06 (Norm of projected orbitals)
 THRMP2=  1.00D-08 (Neglect of small Fock matrix elements)

 Orbital domain selection criteria:

 CHGFRAC=  0.990   CHGMIN=   0.010   CHGMINH=  0.030   CHGMAX=  0.500   CHGMIN_PAIRS=  0.200    MERGEDOM=0   CANBLK=1

 Weak and distant pair selection criteria:

 RCLOSE= 1.000   RWEAK= 3.000   RDIST= 8.000   RVDIST=15.000   KEEPCLS=0   KEEPCLS_3EXT=0   MP4CLS=0

 Options for approximating pair-single interactions:   JEDOM= 0   RMAX3X= 0.000   SKIPGE=0


 Pipek-Mezey localisation finished (npass= 11  nrot=   1740  Thresh=  0.10D-08  CPU=   0.01 sec)

 Ordering localized MOs according to charge centroids

 Generating projected atomic orbitals

 Deleting projected core orbital    1.1 (C 1s)    Norm=  0.11D-02
 Deleting projected core orbital   81.1 (C 1s)    Norm=  0.15D-02
 Deleting projected core orbital  161.1 (O 1s)    Norm=  0.13D-02
 Deleting projected core orbital  241.1 (C 1s)    Norm=  0.11D-02
 Deleting projected core orbital  321.1 (O 1s)    Norm=  0.12D-02
 Deleting projected core orbital  401.1 (C 1s)    Norm=  0.22D-02
 Deleting projected core orbital  481.1 (O 1s)    Norm=  0.95D-03

 Ranking of atoms according to Loewdin charges

 Orbital domains

   Orb.   Atom     Charge      Crit.
   8.1    1 C       0.80       0.000
         10 H       0.61       0.993
   9.1    1 C       0.78       0.000
          9 H       0.62       0.994
  10.1    1 C       0.79       0.000
          8 H       0.60       0.992
  11.1    1 C       0.66       0.000
          2 C       0.61       0.994
  12.1    3 O       1.06       0.000
          2 C       0.68       0.997
  13.1    3 O       1.12       0.000
          2 C       0.61       0.996
  14.1    3 O       1.45       0.997
  15.1    3 O       1.35       0.981
          2 C       0.41       0.995
  16.1    4 C       0.67       0.000
          2 C       0.63       0.991
  17.1    5 O       1.46       0.993
  18.1    5 O       1.00       0.000
          4 C       0.63       0.996
  19.1    5 O       1.50       0.981
          4 C       0.28       0.994
  20.1    6 C       0.82       0.000
          4 C       0.58       0.990
  21.1    4 C       0.75       0.000
         11 H       0.59       0.987
          2 C       0.22       0.993
  22.1    5 O       1.24       0.963
         12 H       0.29       0.981
          4 C       0.26       0.991
  23.1    6 C       1.23       0.992
  24.1    7 O       1.16       0.945
          6 C       0.48       0.996
  25.1    7 O       1.34       0.995
  26.1    7 O       1.35       0.980
         12 H       0.22       0.988
          6 C       0.18       0.994
  27.1    7 O       1.11       0.000
         13 H       0.53       0.993

 Number of strong pairs:          73
 Number of close pairs:           40     Rmin=      2.181
 Number of weak pairs:            97     Rmin=      3.033

 FOCK MATRIX DIAGONALIZED IN THE SUBSPACE OF ORBITALS  12.1  13.1  15.1
 FOCK MATRIX DIAGONALIZED IN THE SUBSPACE OF ORBITALS  18.1  19.1

 Average pair domain sizes:      249    (strong pairs: 198, close pairs: 303, weak pairs: 264, distant pairs:   0)
 Number of redundant orbitals:     4

 Largest S-eigenvalue of redundant functions:  0.7396D-06   Pair:  67  Symmetry: 1
 Smallest S-eigenvalue of domains              0.1087D-05   Pair:  49  Symmetry: 1

 CPU-time for pair domains:             4.33 SEC

 Distance criteria for operator lists:     RMAXJ=      8.00  RMAXK=      8.00  RMAXL=     15.00
 Distance criteria for operator domains:   RDOMJ=      0.00  RDOMK=      8.00

 Using operator domains:    iopdom=5   sdom=2  kextyp=0   triptyp=2

 Number of orbital pairs:        210
 Length of K(kl) list:           210
 Number of operators K(kl):      210 (569.05 MB)   Domain sizes:    min= 158  max= 829  average= 553
 Number of operators J(kl):      210 (160.12 MB)   Domain sizes:    min= 158  max= 566  average= 306
 Number of y,z intermediates:    242
 Number of operators J/K(E):     242 (322.48 MB)   Domain sizes:    min= 158  max= 566  average= 335


 File size for 4-external integrals using center quadruplets:   71.207 GB

 icfit_3ext= 2  icfit_4ext= 2
 locfit_ccsd= 0  locfit_2ext= 0  locfit_3ext= 0  locfit_4ext= 0  locfit=-1

 Number of correlated orbitals:                 20
 Number of weak pair functions:                 97  (treated by MP2)
 Number of strong pair functions:               73
 Total number of pair functions:               210
 Number of singly external local CSFs:        2850
 Number of doubly external local CSFs:    13689339 (all pairs)   6625950 (strong pairs)   7063389 (weak pairs)
 Total number of local CSFs:              13692190 (all pairs)   6628801 (strong pairs)

 Length of J-op  integral file:              10.75 MB
 Length of K-op  integral file:             179.20 MB

 Using 3-external integrals

 File size for 3-external integrals using MO/center triples:    16.121 GB

 AO-basis loaded. Number of functions:                 836

 Fitting-basis AUG-CC-PVQZ-MP2F loaded for 0-2-external integrals.

 Number of fitting functions:                     1656
 CPU time for 2-ext exchange integrals           20.61 sec, Elapsed time=     23.04 sec

 Using incore algorithm in dfasmbl_coul, locfit=0

 CPU time for 2-ext Coulomb integrals            21.73 sec, Elapsed time=     21.96 sec
 CPU time for DF-2ext transformation (total)     42.34 sec, Elapsed time=     45.00 sec
 Local fitting disabled for 3-ext integrals

 Fitting-basis AUG-CC-PVQZ-MP2F loaded for 3-external integrals.

 Number of fitting functions:                     1656
 CPU time for DF-3ext transformations           346.14 sec, Elapsed time=    564.12 sec (including assembly of 3ext integrals)

 Fitting-basis AUG-CC-PVQZ-MP2F loaded for 4-external integrals.

 Number of fitting functions:                     1656
 Distributing 4-ext file on two disks:          4920547409          4636659379          9557206788
 CPU time for DF-4ext transformations           763.99 sec, Elapsed time=   1385.36 sec

 Minimum memory for LMP2:     61.26 MW, used:    121.93 MW

 Threshold for neglect of couplings:    0.10D-07     LMP2ALGO= 1   DYNAMIC=1  LIIS=0

 ITER.      SQ.NORM    CORR.ENERGY   TOTAL ENERGY   ENERGY CHANGE      VAR         THR        CPU    
   1      1.43601395    -1.51008363  -380.52442670    -1.51008363    0.44D+00    0.10D-04     1.09
   2      1.47074756    -1.54498246  -380.55932552    -0.03489883    0.85D-02    0.10D-04    15.28
   3      1.48509495    -1.56019523  -380.57453830    -0.01521277    0.31D-03    0.10D-04    29.57
   4      1.48577147    -1.56075037  -380.57509343    -0.00055514    0.28D-05    0.10D-06    43.82
   5      1.48581247    -1.56077920  -380.57512227    -0.00002883    0.51D-07    0.10D-07    58.07
   6      1.48581710    -1.56078235  -380.57512542    -0.00000315    0.12D-08    0.10D-07    72.16
   7      1.48581770    -1.56078276  -380.57512582    -0.00000040    0.32D-10    0.10D-07    86.42

 Computing Hylleraas functional

   8      1.48581770    -1.56078280  -380.57512587    -0.00000005    0.00D+00    0.10D-07    99.72

 CPU TIME FOR ITERATIVE MP2:   99.72 SEC, ELAPSED TIME:  100.83SEC

 MP2 energy of close pairs:            -0.04525120
 MP2 energy of weak pairs:             -0.04966399

 MP2 correlation energy:               -1.56078280
 MP2 total energy:                   -380.57512587

 LMP2 singlet pair energy              -0.97572892
 LMP2 triplet pair energy              -0.58505388

 SCS-LMP2 correlation energy:          -1.53490823   (PS=  1.200000  PT=  0.333333)
 SCS-LMP2 total energy:              -380.54925130

 Minimum Memory for K-operators:     9.15 MW Maximum memory for K-operators    74.59 MW  used:    74.59 MW
 Memory for amplitude vector:        3.13 MW

 Minimum memory for LCCSD:    22.90 MW, used:    171.29 MW, max:    168.16 MW

 ITER.      SQ.NORM     CORR.ENERGY   TOTAL ENERGY   ENERGY CHANGE        DEN1      VAR(S)    VAR(P)  DIIS     TIME
   1      1.46186859    -1.50674440  -380.52108747     0.05403840    -1.46565594  0.98D-02  0.85D-02  1  1  1391.13
   2      1.49048015    -1.51056920  -380.52491227    -0.00382480    -0.02372660  0.50D-03  0.17D-02  2  2  1557.26
   3      1.51321069    -1.51309842  -380.52744149    -0.00252922    -0.01235596  0.41D-03  0.58D-03  3  3  1730.75
   4      1.54515098    -1.51414431  -380.52848738    -0.00104589    -0.01291121  0.19D-03  0.21D-03  4  4  1899.54
   5      1.56667481    -1.51447333  -380.52881639    -0.00032901    -0.00614503  0.39D-04  0.23D-04  5  5  2059.36
   6      1.55584299    -1.51410624  -380.52844930     0.00036709     0.00490991  0.22D-04  0.45D-04  6  6  2215.57
   7      1.54955209    -1.51456686  -380.52890992    -0.00046062     0.00214187  0.77D-05  0.50D-05  6  1  2370.61
   8      1.55298001    -1.51471250  -380.52905557    -0.00014565    -0.00051400  0.96D-05  0.33D-05  6  3  2528.42
   9      1.55590741    -1.51470584  -380.52904890     0.00000667    -0.00040571  0.31D-05  0.82D-06  6  2  2698.70
  10      1.55734035    -1.51468131  -380.52902437     0.00002453    -0.00032522  0.73D-06  0.25D-06  6  1  2863.96
  11      1.55580792    -1.51466198  -380.52900505     0.00001932     0.00022678  0.38D-06  0.26D-06  6  4  3033.90
  12      1.55605019    -1.51468410  -380.52902716    -0.00002211    -0.00000038  0.35D-06  0.75D-07  6  6  3200.10
  13      1.55604724    -1.51468457  -380.52902764    -0.00000047     0.00002394  0.15D-06  0.34D-07  6  4  3358.33
  14      1.55607697    -1.51468696  -380.52903003    -0.00000239     0.00004901  0.82D-07  0.18D-07  6  5  3514.26
  15      1.55626961    -1.51469075  -380.52903382    -0.00000379    -0.00000734  0.16D-07  0.37D-08  6  1  3672.86
  16      1.55625822    -1.51468940  -380.52903247     0.00000135     0.00000972  0.36D-08  0.80D-09  6  2  3826.44
  17      1.55622537    -1.51469022  -380.52903329    -0.00000082    -0.00000482  0.23D-08  0.60D-09  6  3  3978.98

 Norm of t1 vector:      0.17806934      S-energy:    -0.00000038
 Norm of t2 vector:      0.72423524      P-energy:    -1.51469061

 RESULTS
 =======
  LDCSD singles energy                  0.000000384098
  LDCSD singlet pair energy            -1.079728405904
  LDCSD triplet pair energy            -0.529877397398

  LDCSD strong pair energy             -1.514690607482
  LMP2 close pair energy               -0.045251203187
  LMP2 weak pair energy                -0.049663992633


  Reference energy                   -379.014343066106

  LDCSD correlation energy             -1.609605419205
 !LDCSD total energy                 -380.623948485311

 Program statistics:

 Available memory in ccsd:          1023951202
 Min. memory needed in ccsd:          22900556
 Max. memory used in ccsd:           171291971



 **********************************************************************************************************************************
 DATASETS  * FILE   NREC   LENGTH (MB)   RECORD NAMES
              1      19       55.64       500      610      700      900      950      970     1000      129      960     1100   
                                          VAR    BASINP    GEOM    SYMINP    ZMAT    AOBASIS   BASIS     P2S    ABASIS      S 
                                         1400     1410     1200     1210     1080     1600     1650     1700      960(1)
                                           T        V       H0       H01     AOSYM     SMH    MOLCAS    OPER    ABASIS    

              2       4       19.90       700     1000      520     2100   
                                         GEOM     BASIS   MCVARS     RHF  

 PROGRAMS   *        TOTAL  DF-LDCSD     DF-HF       INT
 CPU TIMES  *      4239.03   3979.02    259.12      0.79
 REAL TIME  *     38119.28 SEC
 DISK USED  *       106.65 GB
 **********************************************************************************************************************************

 DF-LDCSD/aug-cc-pVQZ energy=   -380.623948485311

        DF-LDCSD           DF-HF
   -380.62394849   -379.01434307
 **********************************************************************************************************************************
 Molpro calculation terminated
