
 Primary working directories    : /var/tmp/pbs.368169.bp1/molpro.eqZHWU5gsf
 Secondary working directories  : /var/tmp/pbs.368169.bp1/molpro.eqZHWU5gsf
 Wavefunction directory         : /home/lb17101/molpro_test/inp/lowmem/
 Main file repository           : /home/lb17101/molpro_test/inp/lowmem/

 id        : uob

 Nodes                         nprocs
 bp1-01-10-03.data.bp.acrc.priv    1

 Using customized tuning parameters: mindgm=1; mindgv=20; mindgc=4; mindgr=1; noblas=0; minvec=7
 default implementation of scratch files=df  


 Variables initialized (934), CPU time= 0.01 sec
 geomtyp=xyz
 nosym
 noorient
 geometry={
  C       1.066350376182       0.667846545508       0.443143263865
  O       0.976331329043      -0.624636961262       0.922365517020
  C       0.104872153889      -1.270996216721       0.125034233415
  C      -0.970448021815      -0.461487523538      -0.235599092287
  O      -0.791255957195       1.227974639293      -1.425746560898
  H       0.960084345096       1.404656686646       1.347094863345
  H       1.845812080260       0.696007730948      -0.258354040745
  H      -0.173672345045       1.364710664448      -0.714175141536
  H       0.530167836295      -1.478391040432      -0.768805511281
  H      -0.121323755971      -2.289548315591       0.618247013024
  H      -1.685487815878      -0.794179111091      -0.908083604829
  H      -1.402700857726       0.008046997134       0.670004962946
  H      -1.509022750500       1.718677952731      -1.057402687255
 }
 basis=avqz
 local,thrbp=0.99
 df-hf
 df-ldcsd
 Commands  initialized (763), CPU time= 0.01 sec, 617 directives.
 Default parameters read. Elapsed time= 0.10 sec

 Checking input...
 Passed
1


                                         ***  PROGRAM SYSTEM MOLPRO  ***
                                       Copyright, TTI GmbH Stuttgart, 2015
                                    Version 2019.2 linked Oct 25 2019 22:50:27


 **********************************************************************************************************************************
 LABEL *                                                                                 
  64 bit serial version                                                                  DATE: 22-Sep-20          TIME: 20:41:48  
 **********************************************************************************************************************************

 SHA1:             8dbd9ae1082e4ce945b0f27595c9eb2d4aa09004
 **********************************************************************************************************************************
 SETTING GEOMTYP        =    XYZ

 Variable memory set to 1024000000 words,  buffer space 

 ZSYMEL=NOSYM

 SETTING BASIS          =    AVQZ


 Recomputing integrals since basis changed


 Using spherical harmonics

 Library entry C      S aug-cc-pVQZ          selected for orbital group  1
 Library entry C      P aug-cc-pVQZ          selected for orbital group  1
 Library entry C      D aug-cc-pVQZ          selected for orbital group  1
 Library entry C      F aug-cc-pVQZ          selected for orbital group  1
 Library entry C      G aug-cc-pVQZ          selected for orbital group  1
 Library entry O      S aug-cc-pVQZ          selected for orbital group  2
 Library entry O      P aug-cc-pVQZ          selected for orbital group  2
 Library entry O      D aug-cc-pVQZ          selected for orbital group  2
 Library entry O      F aug-cc-pVQZ          selected for orbital group  2
 Library entry O      G aug-cc-pVQZ          selected for orbital group  2
 Library entry H      S aug-cc-pVQZ          selected for orbital group  5
 Library entry H      P aug-cc-pVQZ          selected for orbital group  5
 Library entry H      D aug-cc-pVQZ          selected for orbital group  5
 Library entry H      F aug-cc-pVQZ          selected for orbital group  5


 PROGRAM * SEWARD (Integral evaluation for generally contracted gaussian basis sets)     Author: Roland Lindh, 1990

 Geometry written to block  1 of record 700


 Point group  C1  



 ATOMIC COORDINATES

 NR  ATOM    CHARGE       X              Y              Z

   1  C       6.00    2.015110164    1.262047064    0.837419403
   2  O       8.00    1.844998819   -1.180392784    1.743018214
   3  C       6.00    0.198179649   -2.401834755    0.236280457
   4  C       6.00   -1.833880979   -0.872085029   -0.445217760
   5  O       8.00   -1.495257054    2.320535756   -2.694270523
   6  H       1.00    1.814296469    2.654416437    2.545640356
   7  H       1.00    3.488079309    1.315263992   -0.488218380
   8  H       1.00   -0.328193168    2.578929395   -1.349595422
   9  H       1.00    1.001872011   -2.793754171   -1.452831859
  10  H       1.00   -0.229268671   -4.326619265    1.168317532
  11  H       1.00   -3.185110358   -1.500781014   -1.716029311
  12  H       1.00   -2.650720456    0.015206621    1.266125882
  13  H       1.00   -2.851639714    3.247830627   -1.998201482

 Bond lengths in Bohr (Angstrom)

 1-2  2.610471124  1-6  2.212925085  1-7  1.982368703  2-3  2.544443462  3-4  2.633219406
     ( 1.381401829)     ( 1.171029525)     ( 1.049024341)     ( 1.346461495)     ( 1.393439701)

  3- 9  1.911183576   3-10  2.180871520   4-11  1.958581496   4-12  2.093611775   5- 8  1.799154388
       ( 1.011354794)       ( 1.154067508)       ( 1.036436693)       ( 1.107891640)       ( 0.952071501)

  5-13  1.784421982
       ( 0.944275447)

 Bond angles

  1-2-3  106.61208951   2-1-6  108.36050155   2-1-7  107.78949170   2-3-4  111.95280045

  2- 3- 9  110.46474778   2- 3-10  107.30479126   3- 4-11  120.92024634   3- 4-12  109.61764989

  4- 3- 9  102.41041632   4- 3-10  118.16939002   6- 1- 7  124.52293819   8- 5-13   97.29022589

  9- 3-10  106.20922060  11- 4-12  113.40587481

 NUCLEAR CHARGE:                   42
 NUMBER OF PRIMITIVE AOS:        1046
 NUMBER OF SYMMETRY AOS:          849
 NUMBER OF CONTRACTIONS:          768   (  768A   )
 NUMBER OF CORE ORBITALS:           5   (    5A   )
 NUMBER OF VALENCE ORBITALS:       28   (   28A   )


 NUCLEAR REPULSION ENERGY  195.60871917


 Eigenvalues of metric

         1 0.111E-05 0.197E-05 0.304E-05 0.422E-05 0.546E-05 0.669E-05 0.818E-05 0.927E-05


 OPERATOR DM      FOR CENTER  0  COORDINATES:    0.000000    0.000000    0.000000


 **********************************************************************************************************************************
 DATASETS  * FILE   NREC   LENGTH (MB)   RECORD NAMES
              1      18       51.66       500      610      700      900      950      970     1000      129      960     1100   
                                          VAR    BASINP    GEOM    SYMINP    ZMAT    AOBASIS   BASIS     P2S    ABASIS      S 
                                         1400     1410     1200     1210     1080     1600     1650     1700   
                                           T        V       H0       H01     AOSYM     SMH    MOLCAS    OPER   

 PROGRAMS   *        TOTAL       INT
 CPU TIMES  *         0.95      0.84
 REAL TIME  *         2.16 SEC
 DISK USED  *        52.38 MB
 **********************************************************************************************************************************


 PROGRAM * RHF-SCF (CLOSED SHELL)       Authors: W. Meyer, H.-J. Werner


 NUMBER OF ELECTRONS:      21+   21-    SPACE SYMMETRY=1    SPIN SYMMETRY: Singlet 
 CONVERGENCE THRESHOLDS:    1.00E-05 (Density)    1.00E-07 (Energy)
 INTEGRAL THRESHOLDS:       1.00E-12 (Initial)    1.00E-12 (Final)
 MAX. NUMBER OF ITERATIONS:       60
 INTERPOLATION TYPE:            DIIS
 INTERPOLATION STEPS:              2 (START)      1 (STEP)
 LEVEL SHIFTS:                  0.00 (CLOSED)  0.00 (OPEN) 




 Basis set AUG-CC-PVQZ/JKFIT generated.  Number of basis functions:   1318 

 Orbital guess generated from atomic densities. Full valence occupancy:   33
 Using density fitting in orbital guess

 Coulomb and exchange fitting
 Thresholds for fitting:       THRAO_COUL= 1.0D-15    THRAO_EXCH= 1.0D-13    THRMO= 1.0D-12    THRPROD= 1.0D-12    THRASM= 1.0D-12
                               THR2HLF=    1.0D-12

 Molecular orbital dump at record        2100.2

 Initial occupancy:  21

 ITERATION   DDIFF            GRAD            ENERGY        2-EL.EN.            DIPOLE MOMENTS         DIIS   CPU(IT)  CPU(TOT)  ORB.
    1      0.000D+00      0.000D+00      -267.75184143    582.905537   -1.62501    0.14778   -0.02270    0     13.5     28.5     start
    2      0.000D+00      0.223D-02      -267.81909130    578.086269   -1.20477   -0.14286   -0.24924    1     13.8     42.3     diag
    3      0.191D-02      0.117D-02      -267.83430006    580.448815   -1.34914   -0.14324   -0.15402    2     13.8     56.0     diag
    4      0.630D-03      0.323D-03      -267.83645472    580.128988   -1.38729   -0.17574   -0.17842    3     13.8     69.9     diag
    5      0.269D-03      0.715D-04      -267.83669277    580.063932   -1.40047   -0.19697   -0.18322    4     13.7     83.5     diag
    6      0.835D-04      0.314D-04      -267.83675443    580.097337   -1.42428   -0.21041   -0.19210    5     13.6     97.2     diag
    7      0.392D-04      0.211D-04      -267.83678033    580.083849   -1.43475   -0.21696   -0.19390    6     13.8    110.9     diag
    8      0.275D-04      0.854D-05      -267.83678977    580.078142   -1.44741   -0.22433   -0.19934    7     13.5    124.4     diag
    9      0.206D-04      0.574D-05      -267.83679208    580.082338   -1.45242   -0.22695   -0.20080    8     13.7    138.1     diag
   10      0.110D-04      0.194D-05      -267.83679248    580.079846   -1.45505   -0.22831   -0.20173    9     13.4    151.5     orth
   11      0.478D-05      0.778D-06      -267.83679253    580.079851   -1.45576   -0.22869   -0.20208    9     13.4    164.9     diag
   12      0.173D-05      0.280D-06      -267.83679253    580.080036   -1.45585   -0.22878   -0.20204    0     13.7    178.6     orth

 Final occupancy:  21

 !RHF STATE  1.1 Energy              -267.836792528091
 Nuclear energy                       195.60871917
 One-electron energy                 -753.48552994
 Two-electron energy                  290.04001824
 Virial quotient                       -0.99826119
 !RHF STATE  1.1 Dipole moment         -1.45584628    -0.22878203    -0.20203849
 Dipole moment /Debye                  -3.70014980    -0.58146783    -0.51349699

 Orbital energies:

         1.1          2.1          3.1          4.1          5.1          6.1          7.1          8.1          9.1         10.1
    -20.571451   -20.536381   -11.326546   -11.273529   -11.226988    -1.401938    -1.385087    -1.069092    -0.905599    -0.814696

        11.1         12.1         13.1         14.1         15.1         16.1         17.1         18.1         19.1         20.1
     -0.733493    -0.708540    -0.661317    -0.644266    -0.615211    -0.570828    -0.558007    -0.517373    -0.508208    -0.414026

        21.1         22.1         23.1
     -0.260170     0.018594     0.029990


 HOMO     21.1    -0.260170 =      -7.0796eV
 LUMO     22.1     0.018594 =       0.5060eV
 LUMO-HOMO         0.278764 =       7.5855eV


 **********************************************************************************************************************************
 DATASETS  * FILE   NREC   LENGTH (MB)   RECORD NAMES
              1      18       51.66       500      610      700      900      950      970     1000      129      960     1100   
                                          VAR    BASINP    GEOM    SYMINP    ZMAT    AOBASIS   BASIS     P2S    ABASIS      S 
                                         1400     1410     1200     1210     1080     1600     1650     1700   
                                           T        V       H0       H01     AOSYM     SMH    MOLCAS    OPER   

              2       4       17.26       700     1000      520     2100   
                                         GEOM     BASIS   MCVARS     RHF  

 PROGRAMS   *        TOTAL     DF-HF       INT
 CPU TIMES  *       179.72    178.77      0.84
 REAL TIME  *       186.26 SEC
 DISK USED  *       336.50 MB
 **********************************************************************************************************************************


 Input parameters for LOCAL:

 LOCAL  =   -1.000000
 THRLOC =   -1.000000

 PROGRAM * CCSD (Closed-shell coupled cluster)     Authors: C. Hampel, H.-J. Werner, 1991, M. Deegan, P.J. Knowles, 1992

                    Density fitting coupled cluster methods (ITF), W. Gyorffy, 2015

                              Local implementation by C. Hampel and H.-J. Werner, 1996
                                    M. Schuetz, G. Hetzer, and H.-J. Werner, 1999
                              Distinguishable Cluster modification by D. Kats, 2013

 Setting use_dist= 1

 Basis set AUG-CC-PVQZ/MP2FIT generated. Number of basis functions:   1480 

 Convergence thresholds:  THRVAR = 1.00D-08  THRDEN = 1.00D-06

 Number of core orbitals:           5 (   5 )
 Number of closed-shell orbitals:  16 (  16 )
 Number of external orbitals:     747 ( 747 )

 Molecular orbitals read from record     2100.2  Type=RHF/CANONICAL (state 1.1)

 Options for lccsd:

   local=       4
   iopdom=      5
   isdom=       2
   i3ext=       3
   i4ext=       1

 Using operators K(Cij)  

 Local correlation treatment
 ===========================

 LOCAL=4  IBASO=0  NONORM=0  IDLCOR=2  KEEPCORE=0  SKIPD=3  LOCSNG= 0  LOCMUL=0  CANBLK=1  SHELLPERM=F

 Thresholds:

 THRLOC=  1.00D-06 (Smallest allowed eigenvalue in domain redundancy check)
 THRGAP=  1.00D-06 (Minimum eigenvalue gap in domain redundancy check)
 THRLOCT= 1.00D-06 (Smallest allowed eigenvalue in domain redundancy check of triples)
 THRGAPT= 1.00D-06 (Minimum eigenvalue gap in domain redundancy check of triples)
 THRORB=  1.00D-06 (Norm of projected orbitals)
 THRMP2=  1.00D-08 (Neglect of small Fock matrix elements)

 Orbital domain selection criteria:

 CHGFRAC=  0.990   CHGMIN=   0.010   CHGMINH=  0.030   CHGMAX=  0.500   CHGMIN_PAIRS=  0.200    MERGEDOM=0   CANBLK=1

 Weak and distant pair selection criteria:

 RCLOSE= 1.000   RWEAK= 3.000   RDIST= 8.000   RVDIST=15.000   KEEPCLS=0   KEEPCLS_3EXT=0   MP4CLS=0

 Options for approximating pair-single interactions:   JEDOM= 0   RMAX3X= 0.000   SKIPGE=0


 Pipek-Mezey localisation finished (npass= 10  nrot=   1056  Thresh=  0.10D-08  CPU=   0.01 sec)

 Ordering localized MOs according to charge centroids

 Generating projected atomic orbitals

 Deleting projected core orbital    1.1 (C 1s)    Norm=  0.13D-02
 Deleting projected core orbital   81.1 (O 1s)    Norm=  0.13D-02
 Deleting projected core orbital  161.1 (C 1s)    Norm=  0.14D-02
 Deleting projected core orbital  241.1 (C 1s)    Norm=  0.16D-02
 Deleting projected core orbital  321.1 (O 1s)    Norm=  0.11D-02

 Ranking of atoms according to Loewdin charges

 Orbital domains

   Orb.   Atom     Charge      Crit.
   6.1    3 C       0.77       0.000
         10 H       0.63       0.995
   7.1    3 C       0.79       0.000
          9 H       0.63       0.990
          4 C       0.19       0.996
   8.1    4 C       0.65       0.000
          3 C       0.63       0.996
   9.1    2 O       0.95       0.000
          3 C       0.54       0.997
  10.1    2 O       1.30       0.994
  11.1    4 C       0.86       0.000
         11 H       0.67       0.996
  12.1    2 O       1.36       0.987
          3 C       0.26       0.994
  13.1    2 O       1.00       0.000
          1 C       0.53       0.997
  14.1    4 C       0.82       0.000
         12 H       0.63       0.995
  15.1    1 C       0.70       0.875
          4 C       0.26       0.980
          7 H       0.18       0.981
          8 H       0.17       0.992
  16.1    1 C       0.86       0.000
          7 H       0.71       0.994
  17.1    5 O       1.21       0.977
          8 H       0.26       0.983
         13 H       0.26       0.986
          4 C       0.12       0.997
  18.1    5 O       1.24       0.999
  19.1    1 C       0.84       0.000
          6 H       0.72       0.996
  20.1    5 O       1.09       0.989
          8 H       0.50       0.996
  21.1    5 O       1.09       0.000
         13 H       0.55       0.999

 Number of strong pairs:          58
 Number of close pairs:           27     Rmin=      1.799
 Number of weak pairs:            51     Rmin=      3.465

 FOCK MATRIX DIAGONALIZED IN THE SUBSPACE OF ORBITALS   9.1  12.1

 Average pair domain sizes:      252    (strong pairs: 217, close pairs: 306, weak pairs: 263, distant pairs:   0)
 Number of redundant orbitals:    26

 Largest S-eigenvalue of redundant functions:  0.1520D-05   Pair:  96  Symmetry: 1
 Smallest S-eigenvalue of domains              0.1229D-05   Pair:  66  Symmetry: 1

 CPU-time for pair domains:             3.37 SEC

 Distance criteria for operator lists:     RMAXJ=      8.00  RMAXK=      8.00  RMAXL=     15.00
 Distance criteria for operator domains:   RDOMJ=      0.00  RDOMK=      8.00

 Using operator domains:    iopdom=5   sdom=2  kextyp=0   triptyp=2

 Number of orbital pairs:        136
 Length of K(kl) list:           136
 Number of operators K(kl):      136 (465.13 MB)   Domain sizes:    min= 158  max= 763  average= 656
 Number of operators J(kl):      136 (156.02 MB)   Domain sizes:    min= 158  max= 717  average= 366
 Number of y,z intermediates:    210
 Number of operators J/K(E):     210 (393.05 MB)   Domain sizes:    min= 204  max= 717  average= 391


 File size for 4-external integrals using center quadruplets:  113.746 GB

 File limit (100.0 GB) exceeded. Switching to CFIT_D4EXT=1

 icfit_3ext= 2  icfit_4ext= 1
 locfit_ccsd= 0  locfit_2ext= 0  locfit_3ext= 0  locfit_4ext= 0  locfit=-1

 Number of correlated orbitals:                 16
 Number of weak pair functions:                 51  (treated by MP2)
 Number of strong pair functions:               58
 Total number of pair functions:               136
 Number of singly external local CSFs:        2369
 Number of doubly external local CSFs:     9158659 (all pairs)   5504399 (strong pairs)   3654260 (weak pairs)
 Total number of local CSFs:               9161029 (all pairs)   5506769 (strong pairs)

 Length of J-op  integral file:               9.08 MB
 Length of K-op  integral file:             133.12 MB

 Using 3-external integrals

 File size for 3-external integrals using MO/center triples:    21.569 GB

 AO-basis loaded. Number of functions:                 768

 Fitting-basis AUG-CC-PVQZ-MP2F loaded for 0-2-external integrals.

 Number of fitting functions:                     1480
 CPU time for 2-ext exchange integrals           15.73 sec, Elapsed time=     16.93 sec

 Using incore algorithm in dfasmbl_coul, locfit=0

 CPU time for 2-ext Coulomb integrals            15.41 sec, Elapsed time=     15.59 sec
 CPU time for DF-2ext transformation (total)     31.14 sec, Elapsed time=     32.52 sec
 Local fitting disabled for 3-ext integrals

 Fitting-basis AUG-CC-PVQZ-MP2F loaded for 3-external integrals.

 Number of fitting functions:                     1480
 CPU time for DF-3ext transformations           358.91 sec, Elapsed time=   7520.78 sec (including assembly of 3ext integrals)

 4-ext integrals assembled on-the-fly

 Fitting-basis AUG-CC-PVQZ-MP2F loaded for 4-external integrals.

 Number of fitting functions:                     1480
 CPU time for DF-4ext transformations            96.98 sec, Elapsed time=    109.90 sec

 Minimum memory for LMP2:     42.21 MW, used:     93.82 MW

 Threshold for neglect of couplings:    0.10D-07     LMP2ALGO= 1   DYNAMIC=1  LIIS=0

 ITER.      SQ.NORM    CORR.ENERGY   TOTAL ENERGY   ENERGY CHANGE      VAR         THR        CPU    
   1      1.28521639    -1.08672808  -268.92352061    -1.08672808    0.29D+00    0.10D-04     0.81
   2      1.30578671    -1.10948273  -268.94627526    -0.02275465    0.50D-02    0.10D-04     9.59
   3      1.31550877    -1.11926103  -268.95605356    -0.00977830    0.29D-03    0.10D-04    18.45
   4      1.31622592    -1.11962754  -268.95642007    -0.00036652    0.65D-05    0.10D-06    27.15
   5      1.31631544    -1.11965972  -268.95645225    -0.00003218    0.19D-06    0.10D-07    35.78
   6      1.31633106    -1.11966531  -268.95645784    -0.00000558    0.66D-08    0.10D-07    44.55
   7      1.31633357    -1.11966619  -268.95645872    -0.00000088    0.21D-09    0.10D-07    53.55

 Computing Hylleraas functional

   8      1.31633357    -1.11966638  -268.95645891    -0.00000019    0.00D+00    0.10D-07    62.08

 CPU TIME FOR ITERATIVE MP2:   62.08 SEC, ELAPSED TIME:   63.96SEC

 MP2 energy of close pairs:            -0.04600969
 MP2 energy of weak pairs:             -0.01681556

 MP2 correlation energy:               -1.11966638
 MP2 total energy:                   -268.95645891

 LMP2 singlet pair energy              -0.72301725
 LMP2 triplet pair energy              -0.39664913

 SCS-LMP2 correlation energy:          -1.11442460   (PS=  1.200000  PT=  0.333333)
 SCS-LMP2 total energy:              -268.95121713

 Minimum Memory for K-operators:     8.66 MW Maximum memory for K-operators    60.97 MW  used:    60.97 MW
 Memory for amplitude vector:        3.06 MW

 Minimum memory for LCCSD:    20.97 MW, used:    142.49 MW, max:    139.44 MW

 ITER.      SQ.NORM     CORR.ENERGY   TOTAL ENERGY   ENERGY CHANGE        DEN1      VAR(S)    VAR(P)  DIIS     TIME
   1      1.31491641    -1.10338547  -268.94017800     0.01628090    -1.07781744  0.68D-02  0.44D-02  1  1  1764.38
   2      1.33140412    -1.10749849  -268.94429102    -0.00411302    -0.01429833  0.45D-03  0.99D-03  2  2  3016.60
   3      1.34735865    -1.10897733  -268.94576986    -0.00147884    -0.00911621  0.48D-03  0.39D-03  3  3  4246.39
   4      1.35536809    -1.10993875  -268.94673128    -0.00096142    -0.00295546  0.30D-03  0.18D-03  4  4  5477.52
   5      1.35637637    -1.11035182  -268.94714435    -0.00041307    -0.00020566  0.23D-03  0.12D-03  5  5  6640.61
   6      1.36890065    -1.11041495  -268.94720748    -0.00006313    -0.00163062  0.22D-03  0.11D-03  6  6  7790.29
   7      1.39726050    -1.11110597  -268.94789850    -0.00069102    -0.00380301  0.12D-03  0.59D-04  6  1  8920.79
   8      1.39721533    -1.11161493  -268.94840746    -0.00050896     0.00002575  0.14D-04  0.88D-05  6  2 10088.03
   9      1.40739198    -1.11162153  -268.94841406    -0.00000661    -0.00112796  0.14D-04  0.84D-05  6  3 11254.76
  10      1.40891134    -1.11164831  -268.94844084    -0.00002678    -0.00017726  0.27D-05  0.16D-05  6  4 12371.23
  11      1.41258622    -1.11165655  -268.94844908    -0.00000823    -0.00030125  0.17D-05  0.74D-06  6  1 13498.17
  12      1.41292314    -1.11163484  -268.94842737     0.00002171    -0.00004000  0.23D-06  0.18D-06  6  4 14609.02
  13      1.41365417    -1.11163326  -268.94842579     0.00000158    -0.00006500  0.18D-06  0.11D-06  6  1 15776.57
  14      1.41418948    -1.11162829  -268.94842081     0.00000497    -0.00005139  0.73D-07  0.49D-07  6  4 16911.28
  15      1.41480670    -1.11162334  -268.94841587     0.00000494    -0.00005728  0.28D-07  0.18D-07  6  2 18044.68
  16      1.41483434    -1.11161941  -268.94841194     0.00000394    -0.00000110  0.25D-08  0.72D-09  6  3 19195.69
  17      1.41483507    -1.11161925  -268.94841178     0.00000015     0.00000158  0.96D-09  0.29D-09  6  5 20388.85

 Norm of t1 vector:      0.22344791      S-energy:     0.00000034
 Norm of t2 vector:      0.60407458      P-energy:    -1.11161971

 RESULTS
 =======
  LDCSD singles energy                  0.000000461362
  LDCSD singlet pair energy            -0.801648297852
  LDCSD triplet pair energy            -0.372796662964

  LDCSD strong pair energy             -1.111619714335
  LMP2 close pair energy               -0.046009689178
  LMP2 weak pair energy                -0.016815557303


  Reference energy                   -267.836792528091

  LDCSD correlation energy             -1.174444499455
 !LDCSD total energy                 -269.011237027546

 Program statistics:

 Available memory in ccsd:          1023943548
 Min. memory needed in ccsd:          20971704
 Max. memory used in ccsd:           142494641



 **********************************************************************************************************************************
 DATASETS  * FILE   NREC   LENGTH (MB)   RECORD NAMES
              1      19       51.67       500      610      700      900      950      970     1000      129      960     1100   
                                          VAR    BASINP    GEOM    SYMINP    ZMAT    AOBASIS   BASIS     P2S    ABASIS      S 
                                         1400     1410     1200     1210     1080     1600     1650     1700      960(1)
                                           T        V       H0       H01     AOSYM     SMH    MOLCAS    OPER    ABASIS    

              2       4       17.26       700     1000      520     2100   
                                         GEOM     BASIS   MCVARS     RHF  

 PROGRAMS   *        TOTAL  DF-LDCSD     DF-HF       INT
 CPU TIMES  *     20568.66  20388.92    178.77      0.84
 REAL TIME  *     56877.04 SEC
 DISK USED  *        52.38 GB
 **********************************************************************************************************************************

 DF-LDCSD/aug-cc-pVQZ energy=   -269.011237027546

        DF-LDCSD           DF-HF
   -269.01123703   -267.83679253
 **********************************************************************************************************************************
 Molpro calculation terminated
