
 Primary working directories    : /var/tmp/pbs.368185.bp1/molpro.wCYLbMz6AN
 Secondary working directories  : /var/tmp/pbs.368185.bp1/molpro.wCYLbMz6AN
 Wavefunction directory         : /home/lb17101/molpro_test/inp/lowmem/
 Main file repository           : /home/lb17101/molpro_test/inp/lowmem/

 id        : uob

 Nodes                         nprocs
 bp1-13-13-01.data.bp.acrc.priv    1

 Using customized tuning parameters: mindgm=1; mindgv=20; mindgc=4; mindgr=1; noblas=0; minvec=7
 default implementation of scratch files=df  


 Variables initialized (934), CPU time= 0.00 sec
 geomtyp=xyz
 nosym
 noorient
 geometry={
  C      -2.091519498982       0.663043453157      -0.122053372925
  C      -1.135286809379      -0.185813580498       0.172556835647
  C      -0.490884357517      -1.129531703890      -0.666088918525
  N       0.914911653414      -0.865243264593      -1.007316564659
  C       1.179619123146       0.201038616350      -0.129320422719
  N       2.629464512129       0.321623784546      -0.043581663675
  O       0.190716059238       0.856149353555       0.214505259689
  H      -2.943909037498       0.987317382411      -0.897784981121
  H      -1.000079762372      -1.312793135928       0.454901894400
  H      -1.546832387924       3.368505243977       0.125242808235
  H      -0.652468916274      -2.089954161295      -1.177272407472
  H       3.914317283451       0.198014819584       1.106415737039
  H       3.050616863359       0.063839747637      -2.502743914918
 }
 basis={
 default=avdz
 set,jkfit,context=jkfit
 default,avtz
 set,mp2fit,context=mp2fit
 default,avdz
 set,ri,context=jkfit
 default,avtz
 }
 explicit,ri_basis=ri,df_basis=mp2fit,df_basis_exch=jkfit
 df-hf,basis=jkfit
 pno-lccsd
 Commands  initialized (763), CPU time= 0.01 sec, 617 directives.
 Default parameters read. Elapsed time= 0.08 sec

 Checking input...
 Passed
1


                                         ***  PROGRAM SYSTEM MOLPRO  ***
                                       Copyright, TTI GmbH Stuttgart, 2015
                                    Version 2019.2 linked Oct 25 2019 22:50:27


 **********************************************************************************************************************************
 LABEL *                                                                                 
  64 bit serial version                                                                  DATE: 22-Sep-20          TIME: 20:46:47  
 **********************************************************************************************************************************

 SHA1:             8dbd9ae1082e4ce945b0f27595c9eb2d4aa09004
 **********************************************************************************************************************************
 SETTING GEOMTYP        =    XYZ

 Variable memory set to 1024000000 words,  buffer space 

 ZSYMEL=NOSYM

 SETTING BASIS          =    AVDZ


 Recomputing integrals since basis changed


 Using spherical harmonics

 Library entry C      S aug-cc-pVDZ          selected for orbital group  1
 Library entry C      P aug-cc-pVDZ          selected for orbital group  1
 Library entry C      D aug-cc-pVDZ          selected for orbital group  1
 Library entry N      S aug-cc-pVDZ          selected for orbital group  2
 Library entry N      P aug-cc-pVDZ          selected for orbital group  2
 Library entry N      D aug-cc-pVDZ          selected for orbital group  2
 Library entry O      S aug-cc-pVDZ          selected for orbital group  5
 Library entry O      P aug-cc-pVDZ          selected for orbital group  5
 Library entry O      D aug-cc-pVDZ          selected for orbital group  5
 Library entry H      S aug-cc-pVDZ          selected for orbital group  6
 Library entry H      P aug-cc-pVDZ          selected for orbital group  6


 PROGRAM * SEWARD (Integral evaluation for generally contracted gaussian basis sets)     Author: Roland Lindh, 1990

 Geometry written to block  1 of record 700


 Point group  C1  



 ATOMIC COORDINATES

 NR  ATOM    CHARGE       X              Y              Z

   1  C       6.00   -3.952399037    1.252970535   -0.230647447
   2  C       6.00   -2.145381143   -0.351136777    0.326085160
   3  C       6.00   -0.927636995   -2.134505569   -1.258725631
   4  N       7.00    1.728932453   -1.635072801   -1.903552428
   5  C       6.00    2.229157074    0.379907925   -0.244380181
   6  N       7.00    4.968967782    0.607780868   -0.082357408
   7  O       8.00    0.360401120    1.617887800    0.405356193
   8  H       1.00   -5.563181817    1.865759451   -1.696567733
   9  H       1.00   -1.889876854   -2.480819485    0.859639994
  10  H       1.00   -2.923089574    6.365552360    0.236674607
  11  H       1.00   -1.232987557   -3.949440978   -2.224722424
  12  H       1.00    7.396987630    0.374193778    2.090822723
  13  H       1.00    5.764830383    0.120639639   -4.729500559

 Bond lengths in Bohr (Angstrom)

 1-2  2.479601810  1-8  2.262532586  2-3  2.678606037  2-7  3.187834128  2-9  2.210319352
     ( 1.312148770)     ( 1.197280683)     ( 1.417457272)     ( 1.686929173)     ( 1.169650630)

  3- 4  2.778955904   3- 9  2.352299257   3-11  2.078552214   4- 5  2.657672768   5- 6  2.754040699
       ( 1.470560135)       ( 1.244783160)       ( 1.099922463)       ( 1.406379863)       ( 1.457375576)

 5-7  2.333880962
     ( 1.235036618)

 Bond angles

  1-2-3  128.98908164   1-2-7  100.30181768   1-2-9  139.61961400   2-1-8  147.08871343

  2- 3- 4  116.88685225   2- 3- 9   51.62800747   2- 3-11  142.14123280   2- 7- 5  107.14762391

  2-9-3   71.82304278   3-2-7   93.93326232   3-2-9   56.54894975   3-4-5   99.86502249

  4- 3- 9  128.79018793   4- 3-11  100.92493702   4- 5- 6  106.66089759   4- 5- 7  115.16687326

  6- 5- 7  137.41743133   7- 2- 9  119.88549847   9- 3-11  103.29008625

 NUCLEAR CHARGE:                   52
 NUMBER OF PRIMITIVE AOS:         325
 NUMBER OF SYMMETRY AOS:          311
 NUMBER OF CONTRACTIONS:          215   (  215A   )
 NUMBER OF CORE ORBITALS:           7   (    7A   )
 NUMBER OF VALENCE ORBITALS:       34   (   34A   )


 NUCLEAR REPULSION ENERGY  283.43242898


 Basis set:  JKFIT                   
 Basis size:  1004
 Attributes:
 Sphericals:   T
 Basis set:  MP2FIT                  
 Basis size:   642
 Attributes:
 Sphericals:   T
 Basis set:  RI                      
 Basis size:  1004
 Attributes:
 Sphericals:   T

 **********************************************************************************************************************************


 Eigenvalues of metric

         1 0.286E-04 0.435E-04 0.708E-04 0.104E-03 0.186E-03 0.222E-03 0.373E-03 0.434E-03


 OPERATOR DM      FOR CENTER  0  COORDINATES:    0.000000    0.000000    0.000000


 **********************************************************************************************************************************
 DATASETS  * FILE   NREC   LENGTH (MB)   RECORD NAMES
              1      18       31.90       500      610      700      900      950      970     1000      129      960     1100   
                                          VAR    BASINP    GEOM    SYMINP    ZMAT    AOBASIS   BASIS     P2S    ABASIS      S 
                                         1400     1410     1200     1210     1080     1600     1650     1700   
                                           T        V       H0       H01     AOSYM     SMH    MOLCAS    OPER   

 PROGRAMS   *        TOTAL       INT
 CPU TIMES  *         0.44      0.35
 REAL TIME  *         1.78 SEC
 DISK USED  *        32.43 MB
 **********************************************************************************************************************************


 PROGRAM * RHF-SCF (CLOSED SHELL)       Authors: W. Meyer, H.-J. Werner


 NUMBER OF ELECTRONS:      26+   26-    SPACE SYMMETRY=1    SPIN SYMMETRY: Singlet 
 CONVERGENCE THRESHOLDS:    1.00E-05 (Density)    1.00E-07 (Energy)
 INTEGRAL THRESHOLDS:       1.00E-11 (Initial)    1.00E-11 (Final)
 MAX. NUMBER OF ITERATIONS:       60
 INTERPOLATION TYPE:            DIIS
 INTERPOLATION STEPS:              2 (START)      1 (STEP)
 LEVEL SHIFTS:                  0.00 (CLOSED)  0.00 (OPEN) 





 Orbital guess generated from atomic densities. Full valence occupancy:   41
 Using density fitting in orbital guess

 Coulomb and exchange fitting
 Thresholds for fitting:       THRAO_COUL= 1.0D-14    THRAO_EXCH= 1.0D-12    THRMO= 1.0D-11    THRPROD= 1.0D-11    THRASM= 1.0D-11
                               THR2HLF=    1.0D-11

 Molecular orbital dump at record        2100.2

 Initial occupancy:  26

 ITERATION   DDIFF            GRAD            ENERGY        2-EL.EN.            DIPOLE MOMENTS         DIIS   CPU(IT)  CPU(TOT)  ORB.
    1      0.000D+00      0.000D+00      -337.50106252    798.549555    1.33067   -5.71531   -1.01073    0      1.4      2.9     start
    2      0.000D+00      0.554D-02      -337.52146208    797.800677   -3.86867    2.10152    2.16692    1      1.3      4.2     diag
    3      0.152D-01      0.542D-02      -337.70306071    798.041330    0.23495   -3.35069   -0.98782    2      1.4      5.6     diag
    4      0.850D-02      0.104D-02      -337.71377807    796.818450   -1.83059   -1.99882    0.48134    3      1.3      6.9     diag
    5      0.272D-02      0.759D-03      -337.72023505    797.045545   -0.56378   -2.78499   -0.24800    4      1.4      8.3     diag
    6      0.161D-02      0.363D-03      -337.72200165    797.055788   -0.92978   -2.63468   -0.11473    5      1.4      9.7     diag
    7      0.687D-03      0.187D-03      -337.72329762    796.701573   -0.72099   -2.81745   -0.15467    6      1.3     11.0     diag
    8      0.738D-03      0.146D-03      -337.72386847    796.745940   -0.69694   -2.83305   -0.14638    7      1.3     12.3     diag
    9      0.455D-03      0.827D-04      -337.72430641    796.651084   -0.59555   -2.92034   -0.14824    8      1.3     13.6     diag
   10      0.504D-03      0.630D-04      -337.72455716    796.637267   -0.54444   -2.93808   -0.14184    9      1.3     14.9     orth
   11      0.410D-03      0.367D-04      -337.72469055    796.639889   -0.45206   -2.98045   -0.15475    9      1.4     16.3     diag
   12      0.334D-03      0.285D-04      -337.72475784    796.640878   -0.40656   -2.98671   -0.15585    9      1.3     17.6     diag
   13      0.226D-03      0.205D-04      -337.72480265    796.662796   -0.36084   -2.99054   -0.16732    9      1.3     18.9     diag
   14      0.187D-03      0.170D-04      -337.72484063    796.672491   -0.32192   -2.98374   -0.16827    9      1.3     20.2     diag
   15      0.189D-03      0.151D-04      -337.72486002    796.684968   -0.29245   -2.98734   -0.17478    9      1.3     21.5     diag
   16      0.114D-03      0.127D-04      -337.72489542    796.708204   -0.23828   -2.98001   -0.17858    9      1.3     22.8     diag
   17      0.268D-03      0.102D-04      -337.72490619    796.716401   -0.21923   -2.97732   -0.18476    9      1.3     24.1     diag
   18      0.963D-04      0.905D-05      -337.72492386    796.737803   -0.16878   -2.97331   -0.18509    9      1.3     25.4     diag
   19      0.238D-03      0.548D-05      -337.72492870    796.740931   -0.14883   -2.97300   -0.18760    9      1.3     26.7     fixocc
   20      0.981D-04      0.422D-05      -337.72493155    796.750115   -0.13333   -2.96987   -0.18747    9      1.3     28.0     orth
   21      0.813D-04      0.296D-05      -337.72493266    796.750109   -0.12907   -2.96940   -0.18657    9      1.3     29.3     diag
   22      0.343D-04      0.208D-05      -337.72493346    796.753320   -0.12017   -2.96640   -0.18581    9      1.3     30.6     diag
   23      0.547D-04      0.139D-05      -337.72493360    796.755927   -0.11759   -2.96557   -0.18574    9      1.3     31.9     diag
   24      0.169D-04      0.841D-06      -337.72493367    796.755508   -0.11731   -2.96462   -0.18517    9      1.3     33.2     diag
   25      0.908D-05      0.622D-06      -337.72493368    796.756323   -0.11723   -2.96462   -0.18530    0      1.3     34.5     orth

 Final occupancy:  26

 !RHF STATE  1.1 Energy              -337.724933676125
 Nuclear energy                       283.43242898
 One-electron energy                -1019.53552411
 Two-electron energy                  398.37816145
 Virial quotient                       -1.00382892
 !RHF STATE  1.1 Dipole moment         -0.11723273    -2.96461872    -0.18530258
 Dipole moment /Debye                  -0.29795637    -7.53481565    -0.47096132

 Orbital energies:

         1.1          2.1          3.1          4.1          5.1          6.1          7.1          8.1          9.1         10.1
    -20.651251   -15.661820   -15.629534   -11.436214   -11.409487   -11.397194   -11.353232    -1.509924    -1.262039    -1.198306

        11.1         12.1         13.1         14.1         15.1         16.1         17.1         18.1         19.1         20.1
     -1.087655    -0.993186    -0.846391    -0.810950    -0.709993    -0.695292    -0.673232    -0.628927    -0.602582    -0.537055

        21.1         22.1         23.1         24.1         25.1         26.1         27.1         28.1
     -0.503646    -0.464104    -0.402418    -0.366628    -0.334695    -0.223844    -0.106552    -0.030495


 HOMO     26.1    -0.223844 =      -6.0911eV
 LUMO     27.1    -0.106552 =      -2.8994eV
 LUMO-HOMO         0.117293 =       3.1917eV


 **********************************************************************************************************************************
 DATASETS  * FILE   NREC   LENGTH (MB)   RECORD NAMES
              1      18       31.90       500      610      700      900      950      970     1000      129      960     1100   
                                          VAR    BASINP    GEOM    SYMINP    ZMAT    AOBASIS   BASIS     P2S    ABASIS      S 
                                         1400     1410     1200     1210     1080     1600     1650     1700   
                                           T        V       H0       H01     AOSYM     SMH    MOLCAS    OPER   

              2       4        4.10       700     1000      520     2100   
                                         GEOM     BASIS   MCVARS     RHF  

 PROGRAMS   *        TOTAL     DF-HF       INT
 CPU TIMES  *        34.92     34.48      0.35
 REAL TIME  *        39.20 SEC
 DISK USED  *       112.65 MB
 **********************************************************************************************************************************

 Basis set:  JKFIT                   
 Basis size:  1004
 Attributes:
 Sphericals:   T
 Basis set:  MP2FIT                  
 Basis size:   642
 Attributes:
 Sphericals:   T
 Basis set:  RI                      
 Basis size:  1004
 Attributes:
 Sphericals:   T

 World communicator: rank 0, size 1
 Shared-memory communicator: rank 0, size 1
 Current node: rank 0, 1 node(s) in total

 Restoring occupations from record    2100.2

 Program * PNO-LCCSD   Authors:   H.-J. Werner (2012), M. Schwilk, Q. Ma (2016)

 Number of core orbitals:           7
 Number of closed-shell orbitals:  19
 Number of open-shell orbitals:     0
 Number of valence orbitals:       19
 Number of external orbitals:     189

 Basis set AUG-CC-PVDZ/MP2FIT generated. Number of basis functions:   642 

 iclose= 0  iweak= 0  rclose= 0.00  rweak= 0.00  thrclos= 1.0D-04  thrweak= 1.0D-05  open-shell=F

 Use_GA=T  Use_PAO=T  PAO_pairdom=F  PAO_trans=T  LOCFIT= 1  LOCRI=F  EIJDIP=2  PROJECT_K=T

 Threshold for small PAO norm:    0.00D+00
 Threshold for redundancy check:  1.00D-06

 OPTIONS FOR CCSD:   method= LCCSD     icepa= -1  icepac=-1  icepaw= 2  keepcls=1  maxcls=1  maxclt=2  maxwkt=2  do_mp2w=F
                     project_k=T    project_j=ALL    idexp4_close=0

 OPTIONS FOR SINGLES IN CCSD:   isexp4=  1  isexp5= 0  isexp6= 0  project_je=T  project_s=WEAK
                                includeGE= 1  includeKEKJ= 1  includeJEKJ= 0  includeJ= 2  undress=T  project_ke=2

 Molecular orbitals read from record     2100.2  Type=RHF/CANONICAL (state 1.1)
 Orbital energies read from record       2100.2  Type=RHF/CANONICAL (state 1.1)
 Fock matrix read from record            2100.2  Type=RHF/TOTAL (state 1.1)

  Reference energy                   -337.724933676127


 Computing intrinsic bond orbitals
 =================================

 Basis set MINAO-AUTO-PP generated.      Number of basis functions:   41 

 Polarized AO type:                A = (O Ot + (1-O)(1-Ot)) P12
 Orthogonalization method:         Symmetric (Loewdin)
 Localization functional:          L = sum[A,i] <i|n_A|i>^4 -> max

 Localization group 1:  19 orbitals, occupancy  2.000
 Iterative localization: IB/PM,   16 iter; Final gradient 0.78E-08

 Summary of localized orbital composition:   [THRPRINT= 0.020]

   ORB  GRP  ORB.ENERGY      CENTERS/CHARGES
     8   1    -1.224960      O  7   1.221   C  5   0.767
     9   1    -1.004032      C  2   0.970   C  3   0.897   H  9   0.076   C  1   0.054
    10   1    -0.976098      C  2   1.040   C  1   0.942
    11   1    -0.956287      N  4   1.097   C  5   0.878   (other: 0.025)
    12   1    -0.877492      N  4   0.993   C  3   0.965   (other: 0.042)
    13   1    -0.872830      N  6   1.046   C  5   0.887   H 12   0.030   H 13   0.025
    14   1    -0.844858      O  7   1.973   (other: 0.027)
    15   1    -0.798610      C  3   1.227   H 11   0.739   (other: 0.034)
    16   1    -0.738659      C  1   1.249   H  8   0.740
    17   1    -0.734230      O  7   1.413   C  2   0.361   C  5   0.147   C  3   0.023   (other: 0.056)
    18   1    -0.726269      C  2   1.052   H  9   0.533   C  3   0.277   C  1   0.118   (other: 0.020)
    19   1    -0.661056      N  6   1.880   C  5   0.070   (other: 0.050)
    20   1    -0.659704      O  7   1.746   C  5   0.171   C  2   0.029   (other: 0.053)
    21   1    -0.635971      N  4   1.961   (other: 0.039)
    22   1    -0.574475      N  6   1.597   H 13   0.131   H 12   0.125   C  5   0.115   (other: 0.031)
    23   1    -0.486002      N  4   1.279   C  3   0.391   C  5   0.240   C  2   0.033   (other: 0.056)
    24   1    -0.449487      C  1   1.389   C  2   0.402   C  3   0.096   H 13   0.024   (other: 0.089)
    25   1    -0.393242      N  6   0.868   H 13   0.567   H 12   0.503   C  5   0.051
    26   1    -0.236608      H 10   1.345   C  1   0.288   H 13   0.131   C  3   0.106   H 12   0.060   (other: 0.070)

 CPU Time for LMOs:                  0.06 sec. Elapsed time:     0.08 sec. Memory usage:     0.19 MW (max).
 CPU Time for PAOs:                  0.00 sec. Elapsed time:     0.01 sec. Memory usage:     0.24 MW (max).

 Distance criteria for pair classes:       RCLOSE= 0.0  RWEAK= 0.0  RDIST= 0.0  RVDIST=-1.0
 Connectivity criteria for pair classes:   ICLOSE=   0  IWEAK=   0  IDIST=   0  IVDIST=  -1

 Augmenting orbital domains by 2 shell(s) of neighboring atoms.  Minimum radius:     5.00
 Augmenting DF domains by 2 shell(s) of neighboring atoms.  Minimum radius:          5.00

 Generating LMO domains. Method=COEFF  Threshold=1.00D-06

 Fitting truncated LMOs to exact LMOs

 Minimum LMO domain size:                215
 Maximum LMO domain size:                215
 Average LMO domain size:              215.0   (sparsity   0.00 %)

 CPU time for Fitlmo:                   0.00 sec.

 PAO orbital domain sizes:   110 (min),  188 (max),  152.6 (average)
 DF  orbital domain sizes:   334 (min),  573 (max),  466.5 (average)

 CPU Time for Domains:               0.00 sec. Elapsed time:     0.00 sec. Memory usage:     0.09 MW (max).

 Number of residual matrices on current processor:       19
 Number of amplitude matrices on current processor:     190

 Fitting basis AUG-CC-PVDZ-MP2F loaded

 Threshold for block screening:     1.00D-05
 Threshold for integral screening:  1.00D-10

 CPU time for create_blocked_AO basis:                 0.01 sec, 215 functions, 13 blocks.
 CPU time for create_blocked_DF basis:                 0.05 sec, 642 functions, 24 blocks.

 Fitting basis center dimensions: min=   23, max=   72, average= 49.38
 Fitting basis block dimensions:  min=   1, max=  36, average= 26.75

 CPU time for project LMOs:                                    0.00 sec.
 CPU time for project PAOs:                                    0.00 sec.

 Screening PAOs with threshold      1.00D-06

 Minimum PAO vector length:              215
 Maximum PAO vector length:              215
 Average PAO vector length:            215.0  (sparsity  0.00 %)

 CPU time for cut/fit of PAO vectors:                          0.00 sec.

 CPU Time for Block_basis:           0.03 sec. Elapsed time:     0.08 sec. Memory usage:     0.12 MW (max).
 CPU Time for Orbitals(tot):         0.10 sec. Elapsed time:     0.17 sec. Memory usage:     0.12 MW (max).
 CPU Time for PAO integrals:         0.94 sec. Elapsed time:     0.99 sec. Memory usage:     1.31 MW (max).
 CPU Time for PAO integrals:         0.00 sec. Elapsed time:     0.01 sec. Memory usage:     0.58 MW (max).
 CPU Time for PAO amplitudes:        0.10 sec. Elapsed time:     0.11 sec. Memory usage:     1.12 MW (max).

 Generating OSVs using PAO(PERT) amplitudes, throsv= 1.0D-09

 Minimum OSV orbital domain size:         45
 Maximum OSV orbital domain size:        122
 Average OSV orbital domain size:       78.4

 CPU Time for OSV_generate:          0.05 sec. Elapsed time:     0.05 sec. Memory usage:     0.92 MW (max).

 Computing distant pair energies using multipole approximation up to order   3

 CPU time for computing multipole integrals (PAO/LMO):         0.18 sec
 CPU time for transforming integrals to OSV domains:           0.00 sec
 CPU time for distant pair energies:                           0.26 sec

 Distant pairs selected using the multipole order 3,  thrdist=1.0D-06  thrvdist=1.0D-07

 Semi-canonical distant pair energies, multipole-orders 1-3    0.00000000  0.00000000  0.00000000


 CPU Time for osv_mltp:              0.23 sec. Elapsed time:     0.26 sec. Memory usage:     0.35 MW (max).

 Number of strong pairs:                 190
 Number of close pairs:                    0
 Number of weak pairs:                     0
 Number of distant pairs:                  0  (treated by iterative multipole approximation, thrdist= 1.0D-06)
 Number of very distant pairs:             0  (treated by non-iterative multipole approximation, thrvdist= 1.0D-07)
 Total number of pairs in LMP2:          190

 Number of pairs per orbital (min, max, average):

 Strong pairs:              19    19    19.0
 Close pairs:                0     0     0.0
 Weak  pairs:                0     0     0.0
 Distant  pairs:             0     0     0.0
 Very distant pairs:         0     0     0.0

 CPU Time for Distribute_pairs:      0.00 sec. Elapsed time:     0.01 sec. Memory usage:     0.35 MW (max).

 Number of residual matrices on current processor:      190
 Number of amplitude matrices on current processor:     190

 Minimum OSV pair domain size:            45
 Maximum OSV pair domain size:           242
 Average OSV pair domain size:         148.9
 Total number of OSVs:                  1489
 Total number of OSV amplitudes:     4471207

 CPU Time for OSV_pairdom:           1.10 sec. Elapsed time:     1.21 sec. Memory usage:     4.66 MW (max).
 CPU Time for OSV integrals:         2.22 sec. Elapsed time:     2.40 sec. Memory usage:     9.84 MW (max).
 CPU Time for OSV_smatrix:           0.02 sec. Elapsed time:     0.03 sec. Memory usage:     8.79 MW (max).

 nosvmx= 242  nosvt= 1489  lens=         0  lenr=   4123273  lent=   4471207  leng=   4471207  lenw=   4309148  lenosv=     58564

 Generating PNOs using OSV(SC) amplitudes, THRPNO_EN=0.9970,  THRPNO_OCC=1.0D-08,  KEEP_DIAG=T  THRPNO_DIAG=0.0D+00

 Generating PNOs for LCCSD with thresholds: THREN_CC:  0.99000, THRPNO_CC:1.0D-07

                                                PNO-LMP2     PNO_LCCSD
 Minimum PNO domain size:                            39            26
 Maximum PNO domain size:                           126            79
 Average PNO domain size:                          67.2          42.5
 Total number of PNOs:                            12776          8076
 Total number of PNO amplitudes:                 912096
 Local number of PNO amplitudes:                 912096
 Length of local PNO residual:                   912096
 Length of local W-matrix:                      1996438

 Semi-canonical OSV correlation energy:     -1.21014393
 Semi-canonical PNO correlation energies:   -1.21000019   -1.20911623

 Semi-canonical domain correction:          -0.00014373   -0.00102770

 CPU Time for PNO_generate:          0.79 sec. Elapsed time:     0.81 sec. Memory usage:     9.83 MW (max).

 Local length of PNO overlap matrix for PNO-LMP2:   15265892  Number of blocks:    3249  number of pairs   190

 GA space for pno_smat:             15.27 MW (tot),             15.27 MW (min),             15.27 MW (max), using processor specific storage

 CPU Time for READ_OSV_SBUF:         0.00 sec. Elapsed time:     0.01 sec. Memory usage:     4.76 MW (max).
 CPU Time for PNO_SMAT:              0.46 sec. Elapsed time:     0.49 sec. Memory usage:     4.75 MW (max).

 Denominator shift:          0.2000

 ITER.      SQ.NORM     CORR.ENERGY   TOTAL ENERGY   ENERGY CHANGE     VAR    DIIS
   1      0.57171876    -1.25002891  -338.97496259    -1.25002891  0.93D-02   1  1
   2      0.62198481    -1.27416547  -338.99909914    -0.02413655  0.12D-02   2  2
   3      0.66681828    -1.27684756  -339.00178124    -0.00268210  0.15D-03   3  3
   4      0.67993983    -1.27714145  -339.00207512    -0.00029388  0.19D-04   4  4
   5      0.68281249    -1.27718309  -339.00211676    -0.00004164  0.15D-05   5  5
   6      0.68303236    -1.27718624  -339.00211992    -0.00000315  0.17D-06   6  6
   7      0.68307737    -1.27718661  -339.00212028    -0.00000037  0.17D-07   7  7
   8      0.68309694    -1.27718664  -339.00212032    -0.00000004  0.18D-08   8  8

                                            PNO-LMP2        PNO-LMP2_CORR
  PNO-LMP2 correlation energy          -1.277186642389    -1.277330377016
 !PNO-LMP2 total energy              -339.002120318516  -339.002264053143

 CPU Time for PNO-LMP2:              2.42 sec. Elapsed time:     3.33 sec. Memory usage:     5.52 MW (max).

 PNO-LMP2 energy contributions
 =============================

                            OSV-LMP2(SC)     PNO-LMP2    PNO-SCS-LMP2   %(PNO/OSV)  AVDOM(PNO)
 Strong pair energy:        -1.21014393    -1.27718664    -1.24171082     105.54       67.2
 Close pair energy:          0.00000000     0.00000000     0.00000000       0.00        0.0
 Weak pair energy :          0.00000000     0.00000000     0.00000000       0.00        0.0
 Distant pair energy:        0.00000000     0.00000000     0.00000000       0.00        0.0
 Total correl. energy:      -1.21014393    -1.27718664    -1.24171082     105.54       67.2

 GA space for pno_smat:              6.03 MW (tot),              6.03 MW (min),              6.03 MW (max), using processor specific storage

 CPU Time for READ_OSV_SBUF:         0.03 sec. Elapsed time:     0.06 sec. Memory usage:     2.96 MW (max).
 CPU Time for PNO_SMAT:              0.32 sec. Elapsed time:     0.35 sec. Memory usage:     2.95 MW (max).

 Denominator shift:          0.2000

 ITER.      SQ.NORM     CORR.ENERGY   TOTAL ENERGY   ENERGY CHANGE     VAR    DIIS
   1      0.68249246    -1.27515599  -339.00008967    -1.27515599  0.18D-04   1  1
   2      0.68133045    -1.27523839  -339.00017206    -0.00008240  0.69D-06   2  2
   3      0.68065722    -1.27524031  -339.00017399    -0.00000192  0.78D-07   3  3
   4      0.68040856    -1.27524049  -339.00017417    -0.00000018  0.87D-08   4  4

 LMP2 results with LCCSD domains:
 ================================
                                            PNO-LMP2        PNO-LMP2_CORR
  PNO-LMP2 correlation energy          -1.275240490003    -1.277330377016
  PNO-LMP2 total energy              -339.000174166130  -339.002264053143

  PNO-LMP2 domain correction           -0.002089887014

 CPU Time for PNO-LMP2(tot):         9.09 sec. Elapsed time:    10.84 sec. Memory usage:    12.54 MW (max).

 Energy thresholds for pair classes:  THRCLOSE=1.00D-04  THRWEAK= 1.00D-05  THRDISTC=0.00D+00

 Strong and close pairs optimized in LCCSD, close pair residuals are approximated (keepcls=1).

 Number of optimized pairs:         190
 Number of strong pairs:            184
 Number of close pairs:               6
 Number of weak pairs:                0
 Total number of pairs:             190

 Length of pair-specific S-blocks:   136.05 MW,  length of unique S-blocks    32.43 MW

 CPU Time for LCC_opdom:             0.07 sec. Elapsed time:     0.09 sec. Memory usage:     0.49 MW (max).
 CPU Time for LCC_float:             0.00 sec. Elapsed time:     0.00 sec. Memory usage:     0.12 MW (max).

 CPU Time for LCC_opdom:             0.07 sec. Elapsed time:     0.13 sec. Memory usage:     0.49 MW (max).
 CPU Time for LCC_load:              0.00 sec. Elapsed time:     0.01 sec. Memory usage:     2.34 MW (max).

 Estimated GA usage of PNO-LCCSD integrals:                      0.00 MW
 Maximum GA usage after allocating GAs for CCSD integrals:       0.00 MW

 CPU Time for CCSD integrals:       90.73 sec. Elapsed time:    97.86 sec. Memory usage:    16.22 MW (max).

 GA space for pno_smat:             32.43 MW (tot),             32.43 MW (min),             32.43 MW (max), using node specific storage
 CPU Time for OSV_SMAT_LCC:          0.03 sec. Elapsed time:     0.04 sec. Memory usage:    17.62 MW (max).
 CPU Time for READ_OSV_SBUF:         0.00 sec. Elapsed time:     0.00 sec. Memory usage:    17.62 MW (max).
 CPU Time for PNO_SMAT_LCC:          1.64 sec. Elapsed time:     1.78 sec. Memory usage:    16.47 MW (max).

 Current GA usage:                   0.00 MW.  Maximum GA usage up to this point:            0.00 MW

 Solving PNO-LCCSD equations

 K-Operators in non-linear terms are projected

 Close pairs are approximated (keepcls=1, max_ijkl=0, skip_ijkl=0, maxik=0)

 Weak pairs pairs are treated by CEPA(2)

 Denominator shifts:     0.15 (singles),  0.20 (doubles)

 ITER.      SQ.NORM     CORR.ENERGY   TOTAL ENERGY   ENERGY CHANGE     VAR        VART1     DIIS     TIME
    1     0.72710186    -1.19583981  -338.92077349     0.07940068    0.23D-01    0.47D-01   1  1    15.96
    2     0.69207964    -1.27849311  -339.00342679    -0.08265330    0.84D-02    0.42D-02   2  2    32.27
    3     0.88203922    -1.29530756  -339.02024124    -0.01681445    0.30D-02    0.54D-02   3  3    49.35
    4     1.04189105    -1.30510980  -339.03004348    -0.00980223    0.16D-02    0.26D-02   4  4    64.94
    5     1.24665201    -1.31443650  -339.03937018    -0.00932670    0.98D-03    0.12D-02   5  5    81.29
    6     1.43610935    -1.31978727  -339.04472095    -0.00535077    0.47D-03    0.65D-03   6  6    97.46
    7     1.62773056    -1.32457569  -339.04950937    -0.00478841    0.23D-03    0.24D-03   7  7   113.37
    8     1.77333603    -1.32712556  -339.05205924    -0.00254987    0.10D-03    0.10D-03   8  8   128.92
    9     1.85095944    -1.32798272  -339.05291639    -0.00085716    0.49D-04    0.34D-04   1  8   145.09
   10     1.88972982    -1.32815005  -339.05308372    -0.00016733    0.24D-04    0.19D-04   2  8   161.01
   11     1.91904056    -1.32854242  -339.05347609    -0.00039237    0.11D-04    0.74D-05   3  8   177.55
   12     1.93125840    -1.32867499  -339.05360866    -0.00013257    0.39D-05    0.40D-05   4  8   193.80
   13     1.92968998    -1.32856972  -339.05350340     0.00010527    0.15D-05    0.16D-05   5  8   210.94
   14     1.93080490    -1.32860797  -339.05354165    -0.00003825    0.67D-06    0.79D-06   6  8   227.41
   15     1.93214814    -1.32867552  -339.05360920    -0.00006755    0.27D-06    0.38D-06   7  8   244.27
   16     1.93342249    -1.32869453  -339.05362821    -0.00001901    0.16D-06    0.15D-06   8  8   260.29
   17     1.93299261    -1.32869157  -339.05362525     0.00000296    0.79D-07    0.77D-07   1  8   276.68
   18     1.93240371    -1.32867607  -339.05360975     0.00001550    0.46D-07    0.33D-07   2  8   292.69
   19     1.93151985    -1.32866657  -339.05360025     0.00000950    0.24D-07    0.13D-07   3  8   308.65
   20     1.93097446    -1.32866696  -339.05360064    -0.00000039    0.91D-08    0.63D-08   4  8   325.74

 Convergence reached

  T1 diagnostic   0.08889
  D1 diagnostic   0.41477
   
  Reference energy                   -337.724933676127

  Correlation contributions without domain correction:

  PNO-LCCSD singles energy              0.002001906814
  PNO-LCCSD strong pair energy         -1.330343461747
  PNO-LCCSD close pair energy          -0.000325407944
  PNO-CEPA(2) weak pair energy          0.000000000000
  PNO-SCS-LMP2 distant pair energy      0.000000000000

  Results including domain correction:

  PNO-LMP2 correction                  -0.002089887014
  PNO-LCCSD correlation energy         -1.330756849890
 !PNO-LCCSD total energy             -339.055690526017

 Maximum stack memory usage in PNO-LCCSD iterations: 19.26 MW
 Maximum GA memory usage up to this point: .00 MW
 Maximum local disk usage in MB: 2380.78 (current)   2380.78 (maximum)   2380.78 (average)
 Maximum local disk usage per node: 2380.78 MB

 CPU Time for PNO_LCCSD(it):       287.54 sec. Elapsed time:   325.75 sec. Memory usage:    16.64 MW (max).

 GA_Put processed 226.68 MW globally, average elapsed time per process: .92 sec
 GA_Get processed 59381.88 MW globally, average elapsed time per process: 44.79 sec

 REMARK: Memory usage printed may not be correct.
 CPU Time for PNO-LCCSD(tot):      380.08 sec. Elapsed time:   426.04 sec. Memory usage:    17.62 MW (max).

 Direct file usage                   5.23 MB (local),            5.23 MB (max),              5.23 MB (tot)

 Max. memory usage (overall):       17.62 MW (local),           17.62 MW (max),             17.62 MW (tot)
 Max. GA usage (overall):            0.00 MW (local),            0.00 MW (max),              0.00 MW (tot)
 Max. memory+GA usage:              17.62 MW (local),           17.62 MW (max),             17.62 MW (tot)


 **********************************************************************************************************************************
 DATASETS  * FILE   NREC   LENGTH (MB)   RECORD NAMES
              1      19       31.94       500      610      700      900      950      970     1000      129      960     1100   
                                          VAR    BASINP    GEOM    SYMINP    ZMAT    AOBASIS   BASIS     P2S    ABASIS      S 
                                         1400     1410     1200     1210     1080     1600     1650     1700      960(1)
                                           T        V       H0       H01     AOSYM     SMH    MOLCAS    OPER    ABASIS    

              2       4        4.10       700     1000      520     2100   
                                         GEOM     BASIS   MCVARS     RHF  

 PROGRAMS   *        TOTAL PNO-LCCSD     DF-HF       INT
 CPU TIMES  *       424.29    389.36     34.48      0.35
 REAL TIME  *       476.43 SEC
 DISK USED  *       158.09 MB
 **********************************************************************************************************************************

 PNO-LCCSD/aug-cc-pVDZ energy=   -339.055690526017

       PNO-LCCSD           DF-HF
   -339.05569053   -337.72493368
 **********************************************************************************************************************************
 Molpro calculation terminated
