
 Primary working directories    : /var/tmp/pbs.368224.bp1/molpro.ct5wfTHPDg
 Secondary working directories  : /var/tmp/pbs.368224.bp1/molpro.ct5wfTHPDg
 Wavefunction directory         : /home/lb17101/molpro_test/inp/lowmem/
 Main file repository           : /home/lb17101/molpro_test/inp/lowmem/

 id        : uob

 Nodes                         nprocs
 bp1-01-09-04.data.bp.acrc.priv    1

 Using customized tuning parameters: mindgm=1; mindgv=20; mindgc=4; mindgr=1; noblas=0; minvec=7
 default implementation of scratch files=df  


 Variables initialized (934), CPU time= 0.00 sec
 geomtyp=xyz
 nosym
 noorient
 geometry={
  C       2.037081069569       0.496266381104       0.006804808517
  C       0.606256088079       0.102657717006       0.057948267930
  C       0.095574080161      -1.196412947819      -0.007925827156
  N      -1.300645958593      -1.041782851359      -0.030592361523
  C      -1.506649222784       0.291265587699       0.011575492997
  O      -2.715429983120       0.784914106087      -0.106140438600
  N      -0.382999175434       0.989749121197       0.032833757754
  H       2.182869302787       1.199504087877       0.876145088452
  H       2.228035551868       1.022563437598      -0.923193919584
  H       2.708584303840      -0.418157458026       0.183784894761
  H       0.503783444963      -2.169585930640      -0.280130951025
  H      -2.015904598583      -1.723761853932      -0.000498187097
  H      -2.537437197766       1.764582457226      -0.384327949787
 }
 basis=avtz
 df-hf
 pno-lccsd
 Commands  initialized (763), CPU time= 0.01 sec, 617 directives.
 Default parameters read. Elapsed time= 0.11 sec

 Checking input...
 Passed
1


                                         ***  PROGRAM SYSTEM MOLPRO  ***
                                       Copyright, TTI GmbH Stuttgart, 2015
                                    Version 2019.2 linked Oct 25 2019 22:50:27


 **********************************************************************************************************************************
 LABEL *                                                                                 
  64 bit serial version                                                                  DATE: 22-Sep-20          TIME: 20:57:50  
 **********************************************************************************************************************************

 SHA1:             8dbd9ae1082e4ce945b0f27595c9eb2d4aa09004
 **********************************************************************************************************************************
 SETTING GEOMTYP        =    XYZ

 Variable memory set to 1024000000 words,  buffer space 

 ZSYMEL=NOSYM

 SETTING BASIS          =    AVTZ


 Recomputing integrals since basis changed


 Using spherical harmonics

 Library entry C      S aug-cc-pVTZ          selected for orbital group  1
 Library entry C      P aug-cc-pVTZ          selected for orbital group  1
 Library entry C      D aug-cc-pVTZ          selected for orbital group  1
 Library entry C      F aug-cc-pVTZ          selected for orbital group  1
 Library entry N      S aug-cc-pVTZ          selected for orbital group  2
 Library entry N      P aug-cc-pVTZ          selected for orbital group  2
 Library entry N      D aug-cc-pVTZ          selected for orbital group  2
 Library entry N      F aug-cc-pVTZ          selected for orbital group  2
 Library entry O      S aug-cc-pVTZ          selected for orbital group  4
 Library entry O      P aug-cc-pVTZ          selected for orbital group  4
 Library entry O      D aug-cc-pVTZ          selected for orbital group  4
 Library entry O      F aug-cc-pVTZ          selected for orbital group  4
 Library entry H      S aug-cc-pVTZ          selected for orbital group  6
 Library entry H      P aug-cc-pVTZ          selected for orbital group  6
 Library entry H      D aug-cc-pVTZ          selected for orbital group  6


 PROGRAM * SEWARD (Integral evaluation for generally contracted gaussian basis sets)     Author: Roland Lindh, 1990

 Geometry written to block  1 of record 700


 Point group  C1  



 ATOMIC COORDINATES

 NR  ATOM    CHARGE       X              Y              Z

   1  C       6.00    3.849525315    0.937807545    0.012859224
   2  C       6.00    1.145657968    0.193994970    0.109506356
   3  C       6.00    0.180608836   -2.260892803   -0.014977643
   4  N       7.00   -2.457864647   -1.968684270   -0.057811185
   5  C       6.00   -2.847154397    0.550412190    0.021874512
   6  O       8.00   -5.131418979    1.483272692   -0.200576360
   7  N       7.00   -0.723763548    1.870354771    0.062046810
   8  H       1.00    4.125025148    2.266734211    1.655674263
   9  H       1.00    4.210376989    1.932364842   -1.744583668
  10  H       1.00    5.118482520   -0.790203073    0.347303117
  11  H       1.00    0.952012737   -4.099923213   -0.529370776
  12  H       1.00   -3.809507585   -3.257437808   -0.000941437
  13  H       1.00   -4.795061362    3.334577568   -0.726274567

 Bond lengths in Bohr (Angstrom)

  1- 2  2.805975133   1- 8  2.130912361   1- 9  2.051332169   1-10  2.169821605   2- 3  2.640698784
       ( 1.484858095)       ( 1.127630260)       ( 1.085518236)       ( 1.148220145)       ( 1.397397618)

  2- 5  4.009646263   2- 7  2.511408249   3- 4  2.654950632   3-11  2.059538084   4- 5  2.550243772
       ( 2.121813426)       ( 1.328980013)       ( 1.404939371)       ( 1.089860619)       ( 1.349530887)

  4-12  1.868437443   5- 6  2.477413527   5- 7  2.500530130   6-13  1.953669572
       ( 0.988734515)       ( 1.310990781)       ( 1.323223560)       ( 1.033837415)

 Bond angles

  1-2-3  126.65243177   1-2-5  159.26843443   1-2-7  122.66268805   2-1-8  105.26862216

  2- 1- 9  109.11947968   2- 1-10  110.31151060   2- 3- 4  105.16664336   2- 3-11  134.82920857

  2-5-4   76.16488610   2-5-6  162.47746410   2-5-7   36.96144005   2-7-5  106.26364379

  3- 2- 5   73.60170590   3- 2- 7  110.34100198   3- 4- 5  105.06496530   3- 4-12  129.97942549

  4- 3-11  117.80576630   4- 5- 6  120.65640716   4- 5- 7  113.09737149   5- 2- 7   36.77491616

  5- 4-12  124.74654649   5- 6-13  102.84026026   6- 5- 7  125.84878966   8- 1- 9  109.59605379

  8- 1-10  107.59096331   9- 1-10  114.53758283

 NUCLEAR CHARGE:                   52
 NUMBER OF PRIMITIVE AOS:         631
 NUMBER OF SYMMETRY AOS:          556
 NUMBER OF CONTRACTIONS:          460   (  460A   )
 NUMBER OF CORE ORBITALS:           7   (    7A   )
 NUMBER OF VALENCE ORBITALS:       34   (   34A   )


 NUCLEAR REPULSION ENERGY  296.44055299


 Eigenvalues of metric

         1 0.435E-05 0.600E-05 0.954E-05 0.109E-04 0.151E-04 0.165E-04 0.236E-04 0.397E-04


 OPERATOR DM      FOR CENTER  0  COORDINATES:    0.000000    0.000000    0.000000


 **********************************************************************************************************************************
 DATASETS  * FILE   NREC   LENGTH (MB)   RECORD NAMES
              1      18       37.94       500      610      700      900      950      970     1000      129      960     1100   
                                          VAR    BASINP    GEOM    SYMINP    ZMAT    AOBASIS   BASIS     P2S    ABASIS      S 
                                         1400     1410     1200     1210     1080     1600     1650     1700   
                                           T        V       H0       H01     AOSYM     SMH    MOLCAS    OPER   

 PROGRAMS   *        TOTAL       INT
 CPU TIMES  *         0.63      0.52
 REAL TIME  *         1.64 SEC
 DISK USED  *        38.55 MB
 **********************************************************************************************************************************


 PROGRAM * RHF-SCF (CLOSED SHELL)       Authors: W. Meyer, H.-J. Werner


 NUMBER OF ELECTRONS:      26+   26-    SPACE SYMMETRY=1    SPIN SYMMETRY: Singlet 
 CONVERGENCE THRESHOLDS:    1.00E-05 (Density)    1.00E-07 (Energy)
 INTEGRAL THRESHOLDS:       1.00E-12 (Initial)    1.00E-12 (Final)
 MAX. NUMBER OF ITERATIONS:       60
 INTERPOLATION TYPE:            DIIS
 INTERPOLATION STEPS:              2 (START)      1 (STEP)
 LEVEL SHIFTS:                  0.00 (CLOSED)  0.00 (OPEN) 




 Basis set AUG-CC-PVTZ/JKFIT generated.  Number of basis functions:   1004 

 Orbital guess generated from atomic densities. Full valence occupancy:   41
 Using density fitting in orbital guess

 Coulomb and exchange fitting
 Thresholds for fitting:       THRAO_COUL= 1.0D-15    THRAO_EXCH= 1.0D-13    THRMO= 1.0D-12    THRPROD= 1.0D-12    THRASM= 1.0D-12
                               THR2HLF=    1.0D-12

 Molecular orbital dump at record        2100.2

 Initial occupancy:  26

 ITERATION   DDIFF            GRAD            ENERGY        2-EL.EN.            DIPOLE MOMENTS         DIIS   CPU(IT)  CPU(TOT)  ORB.
    1      0.000D+00      0.000D+00      -338.72379447    829.022782   -1.04621   -0.84239   -0.29861    0      4.4      9.3     start
    2      0.000D+00      0.288D-02      -338.80432715    825.384482   -0.13326   -0.30571   -0.29019    1      4.5     13.8     diag
    3      0.368D-02      0.162D-02      -338.82859691    826.700955   -0.49254   -0.64326   -0.28994    2      4.4     18.3     diag
    4      0.142D-02      0.412D-03      -338.83105332    826.753129   -0.37448   -0.51817   -0.29410    3      4.4     22.7     diag
    5      0.461D-03      0.139D-03      -338.83131860    826.634593   -0.38422   -0.56331   -0.29587    4      4.4     27.1     diag
    6      0.162D-03      0.400D-04      -338.83135554    826.627562   -0.37902   -0.54655   -0.29611    5      4.6     31.7     diag
    7      0.586D-04      0.156D-04      -338.83136235    826.642665   -0.37800   -0.54680   -0.29630    6      4.4     36.1     diag
    8      0.271D-04      0.576D-05      -338.83136363    826.633866   -0.37866   -0.54513   -0.29637    7      4.4     40.5     diag
    9      0.117D-04      0.229D-05      -338.83136387    826.635497   -0.37868   -0.54482   -0.29633    8      4.4     45.0     diag
   10      0.581D-05      0.891D-06      -338.83136389    826.635379   -0.37886   -0.54456   -0.29634    9      4.4     49.4     orth
   11      0.195D-05      0.319D-06      -338.83136390    826.635020   -0.37885   -0.54454   -0.29634    0      4.4     53.8     orth

 Final occupancy:  26

 !RHF STATE  1.1 Energy              -338.831363897010
 Nuclear energy                       296.44055299
 One-electron energy                -1048.58942697
 Two-electron energy                  413.31751008
 Virial quotient                       -1.00189739
 !RHF STATE  1.1 Dipole moment         -0.37884591    -0.54453788    -0.29634009
 Dipole moment /Debye                  -0.96286720    -1.38398659    -0.75317203

 Orbital energies:

         1.1          2.1          3.1          4.1          5.1          6.1          7.1          8.1          9.1         10.1
    -20.620192   -15.612078   -15.533543   -11.361610   -11.252957   -11.244526   -11.226213    -1.453945    -1.323871    -1.184704

        11.1         12.1         13.1         14.1         15.1         16.1         17.1         18.1         19.1         20.1
     -1.018419    -0.928986    -0.836241    -0.791277    -0.756198    -0.669557    -0.656501    -0.622757    -0.589225    -0.576792

        21.1         22.1         23.1         24.1         25.1         26.1         27.1         28.1
     -0.539540    -0.526857    -0.517839    -0.439071    -0.406471    -0.287833     0.026177     0.034699


 HOMO     26.1    -0.287833 =      -7.8323eV
 LUMO     27.1     0.026177 =       0.7123eV
 LUMO-HOMO         0.314010 =       8.5446eV


 **********************************************************************************************************************************
 DATASETS  * FILE   NREC   LENGTH (MB)   RECORD NAMES
              1      18       37.94       500      610      700      900      950      970     1000      129      960     1100   
                                          VAR    BASINP    GEOM    SYMINP    ZMAT    AOBASIS   BASIS     P2S    ABASIS      S 
                                         1400     1410     1200     1210     1080     1600     1650     1700   
                                           T        V       H0       H01     AOSYM     SMH    MOLCAS    OPER   

              2       4        8.12       700     1000      520     2100   
                                         GEOM     BASIS   MCVARS     RHF  

 PROGRAMS   *        TOTAL     DF-HF       INT
 CPU TIMES  *        54.50     53.87      0.52
 REAL TIME  *        58.68 SEC
 DISK USED  *       200.10 MB
 **********************************************************************************************************************************


 World communicator: rank 0, size 1
 Shared-memory communicator: rank 0, size 1
 Current node: rank 0, 1 node(s) in total

 Restoring occupations from record    2100.2

 Program * PNO-LCCSD   Authors:   H.-J. Werner (2012), M. Schwilk, Q. Ma (2016)

 Number of core orbitals:           7
 Number of closed-shell orbitals:  19
 Number of open-shell orbitals:     0
 Number of valence orbitals:       19
 Number of external orbitals:     434

 Basis set AUG-CC-PVTZ/MP2FIT generated. Number of basis functions:   1018 

 iclose= 0  iweak= 0  rclose= 0.00  rweak= 0.00  thrclos= 1.0D-04  thrweak= 1.0D-05  open-shell=F

 Use_GA=T  Use_PAO=T  PAO_pairdom=F  PAO_trans=T  LOCFIT= 1  LOCRI=F  EIJDIP=2  PROJECT_K=T

 Threshold for small PAO norm:    0.00D+00
 Threshold for redundancy check:  1.00D-06

 OPTIONS FOR CCSD:   method= LCCSD     icepa= -1  icepac=-1  icepaw= 2  keepcls=1  maxcls=1  maxclt=2  maxwkt=2  do_mp2w=F
                     project_k=T    project_j=ALL    idexp4_close=0

 OPTIONS FOR SINGLES IN CCSD:   isexp4=  1  isexp5= 0  isexp6= 0  project_je=T  project_s=WEAK
                                includeGE= 1  includeKEKJ= 1  includeJEKJ= 0  includeJ= 2  undress=T  project_ke=2

 Molecular orbitals read from record     2100.2  Type=RHF/CANONICAL (state 1.1)
 Orbital energies read from record       2100.2  Type=RHF/CANONICAL (state 1.1)
 Fock matrix read from record            2100.2  Type=RHF/TOTAL (state 1.1)

  Reference energy                   -338.831363897012


 Computing intrinsic bond orbitals
 =================================

 Basis set MINAO-AUTO-PP generated.      Number of basis functions:   41 

 Polarized AO type:                A = (O Ot + (1-O)(1-Ot)) P12
 Orthogonalization method:         Symmetric (Loewdin)
 Localization functional:          L = sum[A,i] <i|n_A|i>^4 -> max

 Localization group 1:  19 orbitals, occupancy  2.000
 Iterative localization: IB/PM,    9 iter; Final gradient 0.58E-08

 Summary of localized orbital composition:   [THRPRINT= 0.020]

   ORB  GRP  ORB.ENERGY      CENTERS/CHARGES
     8   1    -1.125314      O  6   1.257   C  5   0.737
     9   1    -0.985557      N  4   1.155   C  5   0.832
    10   1    -0.971526      N  7   1.074   C  5   0.911
    11   1    -0.932986      N  7   1.121   C  2   0.854   (other: 0.025)
    12   1    -0.924078      O  6   1.387   H 13   0.590   (other: 0.023)
    13   1    -0.893929      N  4   1.219   C  3   0.764
    14   1    -0.889071      N  4   1.313   H 12   0.678
    15   1    -0.815978      C  3   1.011   C  2   0.977
    16   1    -0.798918      O  6   1.977   (other: 0.023)
    17   1    -0.750735      C  2   1.020   C  1   0.971
    18   1    -0.697710      C  3   1.155   H 11   0.838
    19   1    -0.659317      C  1   1.139   H  9   0.843
    20   1    -0.628948      C  1   1.123   H  8   0.859
    21   1    -0.628039      C  1   1.112   H 10   0.877
    22   1    -0.575297      O  6   1.886   C  5   0.085   (other: 0.030)
    23   1    -0.526159      N  7   1.929   C  5   0.023   (other: 0.048)
    24   1    -0.500095      N  4   1.620   C  5   0.258   C  3   0.058   C  2   0.041   (other: 0.022)
    25   1    -0.471075      N  7   1.325   C  5   0.458   C  2   0.195   (other: 0.022)
    26   1    -0.351351      C  3   1.158   C  2   0.715   C  5   0.105   (other: 0.022)

 CPU Time for LMOs:                  0.09 sec. Elapsed time:     0.12 sec. Memory usage:     0.85 MW (max).
 CPU Time for PAOs:                  0.01 sec. Elapsed time:     0.01 sec. Memory usage:     1.07 MW (max).

 Distance criteria for pair classes:       RCLOSE= 0.0  RWEAK= 0.0  RDIST= 0.0  RVDIST=-1.0
 Connectivity criteria for pair classes:   ICLOSE=   0  IWEAK=   0  IDIST=   0  IVDIST=  -1

 Augmenting orbital domains by 2 shell(s) of neighboring atoms.  Minimum radius:     5.00
 Augmenting DF domains by 2 shell(s) of neighboring atoms.  Minimum radius:          5.00

 Generating LMO domains. Method=COEFF  Threshold=1.00D-06

 Fitting truncated LMOs to exact LMOs

 Minimum LMO domain size:                460
 Maximum LMO domain size:                460
 Average LMO domain size:              460.0   (sparsity   0.00 %)

 CPU time for Fitlmo:                   0.00 sec.

 PAO orbital domain sizes:   230 (min),  437 (max),  323.2 (average)
 DF  orbital domain sizes:   516 (min),  972 (max),  725.3 (average)

 CPU Time for Domains:               0.01 sec. Elapsed time:     0.01 sec. Memory usage:     0.43 MW (max).

 Number of residual matrices on current processor:       19
 Number of amplitude matrices on current processor:     190

 Fitting basis AUG-CC-PVTZ-MP2F loaded

 Threshold for block screening:     1.00D-05
 Threshold for integral screening:  1.00D-10

 CPU time for create_blocked_AO basis:                 0.02 sec, 460 functions, 20 blocks.
 CPU time for create_blocked_DF basis:                 0.04 sec, 1018 functions, 34 blocks.

 Fitting basis center dimensions: min=   46, max=  106, average= 78.31
 Fitting basis block dimensions:  min=   1, max=  36, average= 29.94

 CPU time for project LMOs:                                    0.00 sec.
 CPU time for project PAOs:                                    0.00 sec.

 Screening PAOs with threshold      1.00D-06

 Minimum PAO vector length:              460
 Maximum PAO vector length:              460
 Average PAO vector length:            460.0  (sparsity  0.00 %)

 CPU time for cut/fit of PAO vectors:                          0.00 sec.

 CPU Time for Block_basis:           0.06 sec. Elapsed time:     0.07 sec. Memory usage:     0.46 MW (max).
 CPU Time for Orbitals(tot):         0.17 sec. Elapsed time:     0.21 sec. Memory usage:     0.46 MW (max).
 CPU Time for PAO integrals:         5.01 sec. Elapsed time:     5.14 sec. Memory usage:     4.85 MW (max).
 CPU Time for PAO integrals:         0.00 sec. Elapsed time:     0.00 sec. Memory usage:     2.52 MW (max).
 CPU Time for PAO amplitudes:        0.79 sec. Elapsed time:     0.79 sec. Memory usage:     5.10 MW (max).

 Generating OSVs using PAO(PERT) amplitudes, throsv= 1.0D-09

 Minimum OSV orbital domain size:         84
 Maximum OSV orbital domain size:        213
 Average OSV orbital domain size:      119.6

 CPU Time for OSV_generate:          0.26 sec. Elapsed time:     0.27 sec. Memory usage:     3.85 MW (max).

 Computing distant pair energies using multipole approximation up to order   3

 CPU time for computing multipole integrals (PAO/LMO):         0.51 sec
 CPU time for transforming integrals to OSV domains:           0.01 sec
 CPU time for distant pair energies:                           0.71 sec

 Distant pairs selected using the multipole order 3,  thrdist=1.0D-06  thrvdist=1.0D-07

 Semi-canonical distant pair energies, multipole-orders 1-3    0.00000000  0.00000000  0.00000000


 CPU Time for osv_mltp:              0.68 sec. Elapsed time:     0.71 sec. Memory usage:     1.22 MW (max).

 Number of strong pairs:                 190
 Number of close pairs:                    0
 Number of weak pairs:                     0
 Number of distant pairs:                  0  (treated by iterative multipole approximation, thrdist= 1.0D-06)
 Number of very distant pairs:             0  (treated by non-iterative multipole approximation, thrvdist= 1.0D-07)
 Total number of pairs in LMP2:          190

 Number of pairs per orbital (min, max, average):

 Strong pairs:              19    19    19.0
 Close pairs:                0     0     0.0
 Weak  pairs:                0     0     0.0
 Distant  pairs:             0     0     0.0
 Very distant pairs:         0     0     0.0

 CPU Time for Distribute_pairs:      0.00 sec. Elapsed time:     0.00 sec. Memory usage:     1.22 MW (max).

 Number of residual matrices on current processor:      190
 Number of amplitude matrices on current processor:     190

 Minimum OSV pair domain size:            84
 Maximum OSV pair domain size:           386
 Average OSV pair domain size:         227.3
 Total number of OSVs:                  2273
 Total number of OSV amplitudes:    10403935

 CPU Time for OSV_pairdom:           3.77 sec. Elapsed time:     3.80 sec. Memory usage:    11.64 MW (max).
 CPU Time for OSV integrals:        11.69 sec. Elapsed time:    12.04 sec. Memory usage:    25.33 MW (max).
 CPU Time for OSV_smatrix:           0.18 sec. Elapsed time:     0.20 sec. Memory usage:    22.01 MW (max).

 nosvmx= 386  nosvt= 2273  lens=         0  lenr=  10368198  lent=  10403935  leng=  10403935  lenw=  10428949  lenosv=    148996

 Generating PNOs using OSV(SC) amplitudes, THRPNO_EN=0.9970,  THRPNO_OCC=1.0D-08,  KEEP_DIAG=T  THRPNO_DIAG=0.0D+00

 Generating PNOs for LCCSD with thresholds: THREN_CC:  0.99000, THRPNO_CC:1.0D-07

                                                PNO-LMP2     PNO_LCCSD
 Minimum PNO domain size:                            47            23
 Maximum PNO domain size:                           164            98
 Average PNO domain size:                          88.9          55.5
 Total number of PNOs:                            16888         10541
 Total number of PNO amplitudes:                1557266
 Local number of PNO amplitudes:                1557266
 Length of local PNO residual:                  1557266
 Length of local W-matrix:                      3956418

 Semi-canonical OSV correlation energy:     -1.27429328
 Semi-canonical PNO correlation energies:   -1.27398667   -1.27250639

 Semi-canonical domain correction:          -0.00030660   -0.00178688

 CPU Time for PNO_generate:          2.65 sec. Elapsed time:     2.70 sec. Memory usage:    23.73 MW (max).

 Local length of PNO overlap matrix for PNO-LMP2:   26041148  Number of blocks:    3249  number of pairs   190

 GA space for pno_smat:             26.04 MW (tot),             26.04 MW (min),             26.04 MW (max), using processor specific storage

 CPU Time for READ_OSV_SBUF:         0.00 sec. Elapsed time:     0.01 sec. Memory usage:     9.11 MW (max).
 CPU Time for PNO_SMAT:              1.41 sec. Elapsed time:     1.54 sec. Memory usage:     9.06 MW (max).

 Denominator shift:          0.2000

 ITER.      SQ.NORM     CORR.ENERGY   TOTAL ENERGY   ENERGY CHANGE     VAR    DIIS
   1      0.35979382    -1.30003323  -340.13139713    -1.30003323  0.25D-02   1  1
   2      0.38005904    -1.31054170  -340.14190560    -0.01050847  0.75D-04   2  2
   3      0.38901382    -1.31084381  -340.14220770    -0.00030210  0.14D-05   3  3
   4      0.38966855    -1.31084866  -340.14221255    -0.00000485  0.43D-07   4  4
   5      0.38965574    -1.31084880  -340.14221269    -0.00000014  0.11D-08   5  5

                                            PNO-LMP2        PNO-LMP2_CORR
  PNO-LMP2 correlation energy          -1.310848796434    -1.311155397464
 !PNO-LMP2 total energy              -340.142212693446  -340.142519294477

 CPU Time for PNO-LMP2:              2.92 sec. Elapsed time:     3.17 sec. Memory usage:    10.20 MW (max).

 PNO-LMP2 energy contributions
 =============================

                            OSV-LMP2(SC)     PNO-LMP2    PNO-SCS-LMP2   %(PNO/OSV)  AVDOM(PNO)
 Strong pair energy:        -1.27429328    -1.31084880    -1.28223177     102.87       88.9
 Close pair energy:          0.00000000     0.00000000     0.00000000       0.00        0.0
 Weak pair energy :          0.00000000     0.00000000     0.00000000       0.00        0.0
 Distant pair energy:        0.00000000     0.00000000     0.00000000       0.00        0.0
 Total correl. energy:      -1.27429328    -1.31084880    -1.28223177     102.87       88.9

 GA space for pno_smat:             10.01 MW (tot),             10.01 MW (min),             10.01 MW (max), using processor specific storage

 CPU Time for READ_OSV_SBUF:         0.04 sec. Elapsed time:     0.08 sec. Memory usage:     5.81 MW (max).
 CPU Time for PNO_SMAT:              0.94 sec. Elapsed time:     0.99 sec. Memory usage:     5.76 MW (max).

 Denominator shift:          0.2000

 ITER.      SQ.NORM     CORR.ENERGY   TOTAL ENERGY   ENERGY CHANGE     VAR    DIIS
   1      0.38930400    -1.30864708  -340.14001097    -1.30864708  0.96D-05   1  1
   2      0.38892826    -1.30873175  -340.14009565    -0.00008467  0.63D-07   2  2
   3      0.38875851    -1.30873210  -340.14009600    -0.00000036  0.91D-09   3  3

 LMP2 results with LCCSD domains:
 ================================
                                            PNO-LMP2        PNO-LMP2_CORR
  PNO-LMP2 correlation energy          -1.308732104680    -1.311155397464
  PNO-LMP2 total energy              -340.140096001692  -340.142519294477

  PNO-LMP2 domain correction           -0.002423292784

 CPU Time for PNO-LMP2(tot):        30.90 sec. Elapsed time:    32.08 sec. Memory usage:    30.44 MW (max).

 Energy thresholds for pair classes:  THRCLOSE=1.00D-04  THRWEAK= 1.00D-05  THRDISTC=0.00D+00

 Strong and close pairs optimized in LCCSD, close pair residuals are approximated (keepcls=1).

 Number of optimized pairs:         190
 Number of strong pairs:            166
 Number of close pairs:              22
 Number of weak pairs:                2
 Total number of pairs:             190

 Length of pair-specific S-blocks:   223.90 MW,  length of unique S-blocks    55.17 MW

 CPU Time for LCC_opdom:             0.07 sec. Elapsed time:     0.09 sec. Memory usage:     0.77 MW (max).
 CPU Time for LCC_float:             0.00 sec. Elapsed time:     0.00 sec. Memory usage:     0.46 MW (max).

 CPU Time for LCC_opdom:             0.07 sec. Elapsed time:     0.07 sec. Memory usage:     0.77 MW (max).
 CPU Time for LCC_load:              0.01 sec. Elapsed time:     0.01 sec. Memory usage:     4.59 MW (max).

 Estimated GA usage of PNO-LCCSD integrals:                      0.00 MW
 Maximum GA usage after allocating GAs for CCSD integrals:       0.00 MW

 CPU Time for CCSD integrals:      558.51 sec. Elapsed time:   578.12 sec. Memory usage:    27.70 MW (max).

 GA space for pno_smat:             55.17 MW (tot),             55.17 MW (min),             55.17 MW (max), using node specific storage
 CPU Time for OSV_SMAT_LCC:          0.18 sec. Elapsed time:     0.20 sec. Memory usage:    31.13 MW (max).
 CPU Time for READ_OSV_SBUF:         0.00 sec. Elapsed time:     0.00 sec. Memory usage:    31.13 MW (max).
 CPU Time for PNO_SMAT_LCC:          5.02 sec. Elapsed time:     5.43 sec. Memory usage:    28.44 MW (max).

 Current GA usage:                   0.00 MW.  Maximum GA usage up to this point:            0.00 MW

 Solving PNO-LCCSD equations

 K-Operators in non-linear terms are projected

 Close pairs are approximated (keepcls=1, max_ijkl=0, skip_ijkl=0, maxik=0)

 Weak pairs pairs are treated by CEPA(2)

 Denominator shifts:     0.15 (singles),  0.20 (doubles)

 ITER.      SQ.NORM     CORR.ENERGY   TOTAL ENERGY   ENERGY CHANGE     VAR        VART1     DIIS     TIME
    1     0.39489004    -1.28605487  -340.11741876     0.02267724    0.47D-02    0.61D-02   1  1    36.14
    2     0.38164137    -1.32165466  -340.15301856    -0.03559980    0.67D-03    0.11D-03   2  2    71.78
    3     0.41007288    -1.32340702  -340.15477092    -0.00175236    0.46D-04    0.11D-03   3  3   107.03
    4     0.41544599    -1.32415438  -340.15551828    -0.00074736    0.62D-05    0.13D-04   4  4   143.70
    5     0.41657033    -1.32433833  -340.15570222    -0.00018395    0.90D-06    0.28D-05   5  5   179.39
    6     0.41714294    -1.32438079  -340.15574469    -0.00004246    0.89D-07    0.73D-06   6  6   214.87
    7     0.41735497    -1.32440039  -340.15576429    -0.00001960    0.28D-07    0.66D-07   7  7   250.69
    8     0.41738120    -1.32440501  -340.15576890    -0.00000461    0.35D-08    0.13D-07   8  8   285.86
    9     0.41739092    -1.32440578  -340.15576967    -0.00000077    0.60D-09    0.13D-08   1  8   321.95

 Convergence reached

  T1 diagnostic   0.01251
  D1 diagnostic   0.05071
   
  Reference energy                   -338.831363897012

  Correlation contributions without domain correction:

  PNO-LCCSD singles energy              0.000278593801
  PNO-LCCSD strong pair energy         -1.323904979578
  PNO-LCCSD close pair energy          -0.000760658358
  PNO-CEPA(2) weak pair energy         -0.000018732079
  PNO-SCS-LMP2 distant pair energy      0.000000000000

  Results including domain correction:

  PNO-LMP2 correction                  -0.002423292784
  PNO-LCCSD correlation energy         -1.326829068998
 !PNO-LCCSD total energy             -340.158192966011

 Maximum stack memory usage in PNO-LCCSD iterations: 33.20 MW
 Maximum GA memory usage up to this point: .00 MW
 Maximum local disk usage in MB: 5162.82 (current)   5162.82 (maximum)   5162.82 (average)
 Maximum local disk usage per node: 5162.82 MB

 CPU Time for PNO_LCCSD(it):       280.92 sec. Elapsed time:   321.97 sec. Memory usage:    28.37 MW (max).

 GA_Put processed 468.92 MW globally, average elapsed time per process: 3.21 sec
 GA_Get processed 58448.14 MW globally, average elapsed time per process: 66.31 sec

 REMARK: Memory usage printed may not be correct.
 CPU Time for PNO-LCCSD(tot):      844.78 sec. Elapsed time:   906.96 sec. Memory usage:    31.13 MW (max).

 Direct file usage                  19.77 MB (local),           19.77 MB (max),             19.77 MB (tot)

 Max. memory usage (overall):       31.13 MW (local),           31.13 MW (max),             31.13 MW (tot)
 Max. GA usage (overall):            0.00 MW (local),            0.00 MW (max),              0.00 MW (tot)
 Max. memory+GA usage:              31.13 MW (local),           31.13 MW (max),             31.13 MW (tot)


 **********************************************************************************************************************************
 DATASETS  * FILE   NREC   LENGTH (MB)   RECORD NAMES
              1      19       37.97       500      610      700      900      950      970     1000      129      960     1100   
                                          VAR    BASINP    GEOM    SYMINP    ZMAT    AOBASIS   BASIS     P2S    ABASIS      S 
                                         1400     1410     1200     1210     1080     1600     1650     1700      960(1)
                                           T        V       H0       H01     AOSYM     SMH    MOLCAS    OPER    ABASIS    

              2       4        8.12       700     1000      520     2100   
                                         GEOM     BASIS   MCVARS     RHF  

 PROGRAMS   *        TOTAL PNO-LCCSD     DF-HF       INT
 CPU TIMES  *       930.40    875.88     53.87      0.52
 REAL TIME  *       997.99 SEC
 DISK USED  *       200.10 MB
 **********************************************************************************************************************************

 PNO-LCCSD/aug-cc-pVTZ energy=   -340.158192966011

       PNO-LCCSD           DF-HF
   -340.15819297   -338.83136390
 **********************************************************************************************************************************
 Molpro calculation terminated
