
 Primary working directories    : /var/tmp/pbs.368234.bp1/molpro.dKXM7grNVy
 Secondary working directories  : /var/tmp/pbs.368234.bp1/molpro.dKXM7grNVy
 Wavefunction directory         : /home/lb17101/molpro_test/inp/lowmem/
 Main file repository           : /home/lb17101/molpro_test/inp/lowmem/

 id        : uob

 Nodes                         nprocs
 bp1-01-03-04.data.bp.acrc.priv    1

 Using customized tuning parameters: mindgm=1; mindgv=20; mindgc=4; mindgr=1; noblas=0; minvec=7
 default implementation of scratch files=df  


 Variables initialized (934), CPU time= 0.00 sec
 geomtyp=xyz
 nosym
 noorient
 geometry={
  C      -1.840573378251       0.128601401846      -0.266969348729
  C      -0.641467697320      -0.584593813704      -0.829351626875
  O      -0.340877267224      -1.076800509025      -1.829304568379
  C       0.452772272033       0.259660103435      -0.329687188357
  O       0.653537303955       1.405590490465       0.531302724847
  C       1.227998090875      -0.965421713499       0.499024552574
  O       1.941530254299       0.042442958436       1.524546218334
  H      -1.462920332983      -0.011809819216       0.706685587195
  H      -2.548497553683       1.231393118008       0.119117938553
  H      -2.288440981337      -0.692280758374      -0.978996138734
  H       1.145174083299      -0.068506072503      -1.194196644009
  H       2.221713582024       1.475751985950       1.011523325425
  H       2.981587456336      -0.853684642087       1.455103168221
 }
 basis=avtz
 df-hf
 pno-lccsd,domopt=tight
 Commands  initialized (763), CPU time= 0.01 sec, 617 directives.
 Default parameters read. Elapsed time= 0.09 sec

 Checking input...
 Passed
1


                                         ***  PROGRAM SYSTEM MOLPRO  ***
                                       Copyright, TTI GmbH Stuttgart, 2015
                                    Version 2019.2 linked Oct 25 2019 22:50:27


 **********************************************************************************************************************************
 LABEL *                                                                                 
  64 bit serial version                                                                  DATE: 22-Sep-20          TIME: 21:02:51  
 **********************************************************************************************************************************

 SHA1:             8dbd9ae1082e4ce945b0f27595c9eb2d4aa09004
 **********************************************************************************************************************************
 SETTING GEOMTYP        =    XYZ

 Variable memory set to 1024000000 words,  buffer space 

 ZSYMEL=NOSYM

 SETTING BASIS          =    AVTZ


 Recomputing integrals since basis changed


 Using spherical harmonics

 Library entry C      S aug-cc-pVTZ          selected for orbital group  1
 Library entry C      P aug-cc-pVTZ          selected for orbital group  1
 Library entry C      D aug-cc-pVTZ          selected for orbital group  1
 Library entry C      F aug-cc-pVTZ          selected for orbital group  1
 Library entry O      S aug-cc-pVTZ          selected for orbital group  2
 Library entry O      P aug-cc-pVTZ          selected for orbital group  2
 Library entry O      D aug-cc-pVTZ          selected for orbital group  2
 Library entry O      F aug-cc-pVTZ          selected for orbital group  2
 Library entry H      S aug-cc-pVTZ          selected for orbital group  7
 Library entry H      P aug-cc-pVTZ          selected for orbital group  7
 Library entry H      D aug-cc-pVTZ          selected for orbital group  7


 PROGRAM * SEWARD (Integral evaluation for generally contracted gaussian basis sets)     Author: Roland Lindh, 1990

 Geometry written to block  1 of record 700


 Point group  C1  



 ATOMIC COORDINATES

 NR  ATOM    CHARGE       X              Y              Z

   1  C       6.00   -3.478179597    0.243021429   -0.504498953
   2  C       6.00   -1.212198266   -1.104722202   -1.567247436
   3  O       8.00   -0.644164677   -2.034858053   -3.456884633
   4  C       6.00    0.855615591    0.490686481   -0.623018493
   5  O       8.00    1.235006517    2.656181070    1.004016639
   6  C       6.00    2.320580073   -1.824382633    0.943019734
   7  O       8.00    3.668960443    0.080205567    2.880974817
   8  H       1.00   -2.764518771   -0.022317324    1.335442216
   9  H       1.00   -4.815962406    2.326995745    0.225100280
  10  H       1.00   -4.324526707   -1.308221035   -1.850034579
  11  H       1.00    2.164065382   -0.129457715   -2.256704596
  12  H       1.00    4.198430197    2.788767081    1.911502054
  13  H       1.00    5.634383709   -1.613230170    2.749746471

 Bond lengths in Bohr (Angstrom)

  1- 2  2.842625305   1- 8  1.991255868   1- 9  2.581651958   1-10  2.221063424   2- 3  2.181408626
       ( 1.504252531)       ( 1.053727226)       ( 1.366151383)       ( 1.175336148)       ( 1.154351733)

  2- 4  2.777184061   4- 5  2.735058978   4- 6  3.155652336   4-11  2.183013963   6- 7  3.033357173
       ( 1.469622516)       ( 1.447330882)       ( 1.669899302)       ( 1.155201241)       ( 1.605183489)

 Bond angles

  1-2-3  137.18832835   1-2-4  101.18939038   2-1-8   89.80407349   2-1-9  154.34916256

  2- 1-10   75.29345858   2- 4- 5  139.49755468   2- 4- 6   95.33264109   2- 4-11   91.64155092

  3- 2- 4  110.21746418   4- 6- 7   93.59965854   5- 4- 6  102.78171756   5- 4-11  125.94186059

  6- 4-11   83.38064692   8- 1- 9   91.84224528   8- 1-10  127.10479336   9- 1-10  122.51587499

 NUCLEAR CHARGE:                   54
 NUMBER OF PRIMITIVE AOS:         631
 NUMBER OF SYMMETRY AOS:          556
 NUMBER OF CONTRACTIONS:          460   (  460A   )
 NUMBER OF CORE ORBITALS:           7   (    7A   )
 NUMBER OF VALENCE ORBITALS:       34   (   34A   )


 NUCLEAR REPULSION ENERGY  296.29260924


 Eigenvalues of metric

         1 0.104E-04 0.124E-04 0.151E-04 0.164E-04 0.180E-04 0.325E-04 0.330E-04 0.638E-04


 OPERATOR DM      FOR CENTER  0  COORDINATES:    0.000000    0.000000    0.000000


 **********************************************************************************************************************************
 DATASETS  * FILE   NREC   LENGTH (MB)   RECORD NAMES
              1      18       37.94       500      610      700      900      950      970     1000      129      960     1100   
                                          VAR    BASINP    GEOM    SYMINP    ZMAT    AOBASIS   BASIS     P2S    ABASIS      S 
                                         1400     1410     1200     1210     1080     1600     1650     1700   
                                           T        V       H0       H01     AOSYM     SMH    MOLCAS    OPER   

 PROGRAMS   *        TOTAL       INT
 CPU TIMES  *         0.66      0.55
 REAL TIME  *         1.68 SEC
 DISK USED  *        38.55 MB
 **********************************************************************************************************************************


 PROGRAM * RHF-SCF (CLOSED SHELL)       Authors: W. Meyer, H.-J. Werner


 NUMBER OF ELECTRONS:      27+   27-    SPACE SYMMETRY=1    SPIN SYMMETRY: Singlet 
 CONVERGENCE THRESHOLDS:    1.00E-05 (Density)    1.00E-07 (Energy)
 INTEGRAL THRESHOLDS:       1.00E-11 (Initial)    1.00E-11 (Final)
 MAX. NUMBER OF ITERATIONS:       60
 INTERPOLATION TYPE:            DIIS
 INTERPOLATION STEPS:              2 (START)      1 (STEP)
 LEVEL SHIFTS:                  0.00 (CLOSED)  0.00 (OPEN) 




 Basis set AUG-CC-PVTZ/JKFIT generated.  Number of basis functions:   1004 

 Orbital guess generated from atomic densities. Full valence occupancy:   41
 Using density fitting in orbital guess

 Coulomb and exchange fitting
 Thresholds for fitting:       THRAO_COUL= 1.0D-14    THRAO_EXCH= 1.0D-12    THRMO= 1.0D-11    THRPROD= 1.0D-11    THRASM= 1.0D-11
                               THR2HLF=    1.0D-11

 Molecular orbital dump at record        2100.2

 Initial occupancy:  27

 ITERATION   DDIFF            GRAD            ENERGY        2-EL.EN.            DIPOLE MOMENTS         DIIS   CPU(IT)  CPU(TOT)  ORB.
    1      0.000D+00      0.000D+00      -378.77638774    869.575424    1.60412   -0.52174    1.46647    0      4.5      9.6     start
    2      0.000D+00      0.405D-02      -378.86749787    859.436128    0.56385    1.26434    0.52587    1      4.5     14.1     diag
    3      0.528D-02      0.357D-02      -378.98093533    864.683091    1.01571    0.03634    0.70362    2      4.6     18.7     diag
    4      0.234D-02      0.537D-03      -378.98860945    864.115416    0.96978    0.16713    0.75265    3      4.5     23.2     diag
    5      0.678D-03      0.278D-03      -378.99080168    864.282195    0.98112    0.10572    0.65870    4      4.5     27.7     diag
    6      0.345D-03      0.139D-03      -378.99161034    864.137225    0.95402    0.11545    0.66997    5      4.5     32.2     diag
    7      0.243D-03      0.547D-04      -378.99178456    864.194292    0.95282    0.10887    0.65416    6      4.5     36.7     diag
    8      0.132D-03      0.272D-04      -378.99180957    864.165721    0.94900    0.11047    0.65324    7      4.5     41.3     diag
    9      0.476D-04      0.119D-04      -378.99181599    864.166145    0.94541    0.10934    0.65260    8      4.5     45.8     diag
   10      0.243D-04      0.576D-05      -378.99181786    864.170320    0.94516    0.10884    0.65215    9      4.5     50.3     orth
   11      0.118D-04      0.303D-05      -378.99181872    864.168345    0.94434    0.10900    0.65177    9      4.5     54.9     diag
   12      0.896D-05      0.175D-05      -378.99181905    864.168320    0.94414    0.10870    0.65218    9      4.6     59.5     diag
   13      0.595D-05      0.994D-06      -378.99181917    864.168957    0.94407    0.10868    0.65224    9      4.5     64.0     diag
   14      0.406D-05      0.561D-06      -378.99181919    864.168423    0.94408    0.10875    0.65236    9      4.5     68.5     diag
   15      0.187D-05      0.280D-06      -378.99181920    864.168919    0.94411    0.10866    0.65238    0      4.7     73.2     orth

 Final occupancy:  27

 !RHF STATE  1.1 Energy              -378.991819197549
 Nuclear energy                       296.29260924
 One-electron energy                -1107.36888771
 Two-electron energy                  432.08445928
 Virial quotient                       -1.00292550
 !RHF STATE  1.1 Dipole moment          0.94411438     0.10865705     0.65238036
 Dipole moment /Debye                   2.39954221     0.27616057     1.65807688

 Orbital energies:

         1.1          2.1          3.1          4.1          5.1          6.1          7.1          8.1          9.1         10.1
    -20.663561   -20.575366   -20.535918   -11.379372   -11.364801   -11.299413   -11.261856    -1.467163    -1.348997    -1.253240

        11.1         12.1         13.1         14.1         15.1         16.1         17.1         18.1         19.1         20.1
     -1.068807    -0.977221    -0.796246    -0.731492    -0.672839    -0.665635    -0.649275    -0.606360    -0.602626    -0.573219

        21.1         22.1         23.1         24.1         25.1         26.1         27.1         28.1         29.1
     -0.523057    -0.513955    -0.470066    -0.450442    -0.412823    -0.385926    -0.350307     0.002997     0.029021


 HOMO     27.1    -0.350307 =      -9.5323eV
 LUMO     28.1     0.002997 =       0.0815eV
 LUMO-HOMO         0.353304 =       9.6139eV


 **********************************************************************************************************************************
 DATASETS  * FILE   NREC   LENGTH (MB)   RECORD NAMES
              1      18       37.94       500      610      700      900      950      970     1000      129      960     1100   
                                          VAR    BASINP    GEOM    SYMINP    ZMAT    AOBASIS   BASIS     P2S    ABASIS      S 
                                         1400     1410     1200     1210     1080     1600     1650     1700   
                                           T        V       H0       H01     AOSYM     SMH    MOLCAS    OPER   

              2       4        8.12       700     1000      520     2100   
                                         GEOM     BASIS   MCVARS     RHF  

 PROGRAMS   *        TOTAL     DF-HF       INT
 CPU TIMES  *        73.93     73.27      0.55
 REAL TIME  *        78.38 SEC
 DISK USED  *       200.11 MB
 **********************************************************************************************************************************


 World communicator: rank 0, size 1
 Shared-memory communicator: rank 0, size 1
 Current node: rank 0, 1 node(s) in total

 Restoring occupations from record    2100.2

 Program * PNO-LCCSD   Authors:   H.-J. Werner (2012), M. Schwilk, Q. Ma (2016)

 Number of core orbitals:           7
 Number of closed-shell orbitals:  20
 Number of open-shell orbitals:     0
 Number of valence orbitals:       20
 Number of external orbitals:     433

 Basis set AUG-CC-PVTZ/MP2FIT generated. Number of basis functions:   1018 

 USING TIGHT DOMAIN OPTIONS: THRLMO=0.20  IEXT=3  THROSV=  1.0D-10
                             THRPNO_LMP2=1.0D-08  THREN_LMP2=0.997
                             THRPNO_CC=  1.0D-08  THREN_CC=  0.997
                             THRTNO_T0=  1.0D-10  THRTNO_T=1.0D-07

 iclose= 0  iweak= 0  rclose= 0.00  rweak= 0.00  thrclos= 1.0D-04  thrweak= 1.0D-05  open-shell=F

 Use_GA=T  Use_PAO=T  PAO_pairdom=F  PAO_trans=T  LOCFIT= 1  LOCRI=F  EIJDIP=2  PROJECT_K=T

 Threshold for small PAO norm:    0.00D+00
 Threshold for redundancy check:  1.00D-06

 OPTIONS FOR CCSD:   method= LCCSD     icepa= -1  icepac=-1  icepaw= 2  keepcls=1  maxcls=1  maxclt=2  maxwkt=2  do_mp2w=F
                     project_k=T    project_j=ALL    idexp4_close=0

 OPTIONS FOR SINGLES IN CCSD:   isexp4=  1  isexp5= 0  isexp6= 0  project_je=T  project_s=WEAK
                                includeGE= 1  includeKEKJ= 1  includeJEKJ= 0  includeJ= 2  undress=T  project_ke=2

 Molecular orbitals read from record     2100.2  Type=RHF/CANONICAL (state 1.1)
 Orbital energies read from record       2100.2  Type=RHF/CANONICAL (state 1.1)
 Fock matrix read from record            2100.2  Type=RHF/TOTAL (state 1.1)

  Reference energy                   -378.991819197548


 Computing intrinsic bond orbitals
 =================================

 Basis set MINAO-AUTO-PP generated.      Number of basis functions:   41 

 Polarized AO type:                A = (O Ot + (1-O)(1-Ot)) P12
 Orthogonalization method:         Symmetric (Loewdin)
 Localization functional:          L = sum[A,i] <i|n_A|i>^4 -> max

 Localization group 1:  20 orbitals, occupancy  2.000
 Iterative localization: IB/PM,    8 iter; Final gradient 0.45E-08

 Summary of localized orbital composition:   [THRPRINT= 0.020]

   ORB  GRP  ORB.ENERGY      CENTERS/CHARGES
     8   1    -1.247794      O  3   1.198   C  2   0.795
     9   1    -0.924640      O  7   1.957   C  6   0.032
    10   1    -0.867262      O  5   1.147   C  4   0.836
    11   1    -0.862375      O  5   1.984
    12   1    -0.822739      O  3   1.990
    13   1    -0.805316      C  4   1.022   C  2   0.934   C  6   0.032
    14   1    -0.790145      C  1   1.037   C  2   0.935   (other: 0.028)
    15   1    -0.747754      O  7   1.436   C  6   0.525   H 12   0.025
    16   1    -0.736245      O  7   1.767   H 12   0.170   C  6   0.049
    17   1    -0.694838      C  1   1.135   H  8   0.817   C  2   0.042
    18   1    -0.682914      O  7   1.275   H 13   0.662   C  6   0.049
    19   1    -0.682705      C  6   1.089   C  4   0.871   C  2   0.030
    20   1    -0.667420      C  4   1.073   H 11   0.813   C  6   0.077   C  2   0.033
    21   1    -0.636231      O  3   1.416   C  2   0.553   (other: 0.031)
    22   1    -0.599867      C  1   1.135   H 10   0.830   C  2   0.023
    23   1    -0.590734      C  1   1.164   H  9   0.788   C  2   0.042
    24   1    -0.580107      O  5   1.602   H 12   0.314   C  4   0.035   (other: 0.048)
    25   1    -0.576552      C  6   1.972   (other: 0.028)
    26   1    -0.546054      O  3   1.843   C  2   0.076   C  4   0.034   C  1   0.032
    27   1    -0.458004      O  5   1.917   C  4   0.032   (other: 0.050)

 CPU Time for LMOs:                  0.11 sec. Elapsed time:     0.13 sec. Memory usage:     0.85 MW (max).
 CPU Time for PAOs:                  0.01 sec. Elapsed time:     0.02 sec. Memory usage:     1.07 MW (max).

 Distance criteria for pair classes:       RCLOSE= 0.0  RWEAK= 0.0  RDIST= 0.0  RVDIST=-1.0
 Connectivity criteria for pair classes:   ICLOSE=   0  IWEAK=   0  IDIST=   0  IVDIST=  -1

 Augmenting orbital domains by 3 shell(s) of neighboring atoms.  Minimum radius:     7.00
 Augmenting DF domains by 3 shell(s) of neighboring atoms.  Minimum radius:          7.00

 Generating LMO domains. Method=COEFF  Threshold=1.00D-06

 Fitting truncated LMOs to exact LMOs

 Minimum LMO domain size:                460
 Maximum LMO domain size:                460
 Average LMO domain size:              460.0   (sparsity   0.00 %)

 CPU time for Fitlmo:                   0.00 sec.

 PAO orbital domain sizes:   322 (min),  460 (max),  401.4 (average)
 DF  orbital domain sizes:   714 (min), 1018 (max),  893.7 (average)

 CPU Time for Domains:               0.00 sec. Elapsed time:     0.00 sec. Memory usage:     0.43 MW (max).

 Number of residual matrices on current processor:       20
 Number of amplitude matrices on current processor:     210

 Fitting basis AUG-CC-PVTZ-MP2F loaded

 Threshold for block screening:     1.00D-05
 Threshold for integral screening:  1.00D-10

 CPU time for create_blocked_AO basis:                 0.01 sec, 460 functions, 20 blocks.
 CPU time for create_blocked_DF basis:                 0.05 sec, 1018 functions, 36 blocks.

 Fitting basis center dimensions: min=   46, max=  106, average= 78.31
 Fitting basis block dimensions:  min=   1, max=  36, average= 28.28

 CPU time for project LMOs:                                    0.00 sec.
 CPU time for project PAOs:                                    0.00 sec.

 Screening PAOs with threshold      1.00D-06

 Minimum PAO vector length:              460
 Maximum PAO vector length:              460
 Average PAO vector length:            460.0  (sparsity  0.00 %)

 CPU time for cut/fit of PAO vectors:                          0.01 sec.

 CPU Time for Block_basis:           0.07 sec. Elapsed time:     0.09 sec. Memory usage:     0.47 MW (max).
 CPU Time for Orbitals(tot):         0.19 sec. Elapsed time:     0.24 sec. Memory usage:     0.47 MW (max).
 CPU Time for PAO integrals:         5.49 sec. Elapsed time:     5.66 sec. Memory usage:     6.22 MW (max).
 CPU Time for PAO integrals:         0.00 sec. Elapsed time:     0.01 sec. Memory usage:     3.73 MW (max).
 CPU Time for PAO amplitudes:        1.43 sec. Elapsed time:     1.44 sec. Memory usage:     7.51 MW (max).

 Generating OSVs using PAO(PERT) amplitudes, throsv= 1.0D-10

 Minimum OSV orbital domain size:        108
 Maximum OSV orbital domain size:        220
 Average OSV orbital domain size:      174.9

 CPU Time for OSV_generate:          0.46 sec. Elapsed time:     0.48 sec. Memory usage:     5.79 MW (max).

 Computing distant pair energies using multipole approximation up to order   3

 CPU time for computing multipole integrals (PAO/LMO):         0.51 sec
 CPU time for transforming integrals to OSV domains:           0.00 sec
 CPU time for distant pair energies:                           0.98 sec

 Distant pairs selected using the multipole order 3,  thrdist=1.0D-06  thrvdist=1.0D-07

 Semi-canonical distant pair energies, multipole-orders 1-3    0.00000000  0.00000000  0.00000000


 CPU Time for osv_mltp:              0.97 sec. Elapsed time:     0.98 sec. Memory usage:     1.89 MW (max).

 Number of strong pairs:                 210
 Number of close pairs:                    0
 Number of weak pairs:                     0
 Number of distant pairs:                  0  (treated by iterative multipole approximation, thrdist= 1.0D-06)
 Number of very distant pairs:             0  (treated by non-iterative multipole approximation, thrvdist= 1.0D-07)
 Total number of pairs in LMP2:          210

 Number of pairs per orbital (min, max, average):

 Strong pairs:              20    20    20.0
 Close pairs:                0     0     0.0
 Weak  pairs:                0     0     0.0
 Distant  pairs:             0     0     0.0
 Very distant pairs:         0     0     0.0

 CPU Time for Distribute_pairs:      0.00 sec. Elapsed time:     0.00 sec. Memory usage:     1.89 MW (max).

 Number of residual matrices on current processor:      210
 Number of amplitude matrices on current processor:     210

 Minimum OSV pair domain size:           108
 Maximum OSV pair domain size:           436
 Average OSV pair domain size:         333.1
 Total number of OSVs:                  3498
 Total number of OSV amplitudes:    24217290

 CPU Time for OSV_pairdom:          10.27 sec. Elapsed time:    10.41 sec. Memory usage:    25.92 MW (max).
 CPU Time for OSV integrals:        15.10 sec. Elapsed time:    15.45 sec. Memory usage:    53.01 MW (max).
 CPU Time for OSV_smatrix:           0.46 sec. Elapsed time:     0.50 sec. Memory usage:    49.66 MW (max).

 nosvmx= 436  nosvt= 3498  lens=         0  lenr=  23736137  lent=  24217290  leng=  24217290  lenw=  24040690  lenosv=    190096

 Generating PNOs using OSV(SC) amplitudes, THRPNO_EN=0.9970,  THRPNO_OCC=1.0D-08,  KEEP_DIAG=T  THRPNO_DIAG=0.0D+00

 Generating PNOs for LCCSD with thresholds: THREN_CC:  0.99700, THRPNO_CC:1.0D-08

                                                PNO-LMP2     PNO_LCCSD
 Minimum PNO domain size:                            62            62
 Maximum PNO domain size:                           146           146
 Average PNO domain size:                          98.7          98.7
 Total number of PNOs:                            20736         20736
 Total number of PNO amplitudes:                2089250
 Local number of PNO amplitudes:                2089250
 Length of local PNO residual:                  2089250
 Length of local W-matrix:                      6993700

 Semi-canonical OSV correlation energy:     -1.42687703
 Semi-canonical PNO correlation energies:   -1.42654809   -1.42654809

 Semi-canonical domain correction:          -0.00032894   -0.00032894

 CPU Time for PNO_generate:          6.89 sec. Elapsed time:     6.97 sec. Memory usage:    51.49 MW (max).

 Local length of PNO overlap matrix for PNO-LMP2:   37628869  Number of blocks:    3800  number of pairs   210

 GA space for pno_smat:             37.63 MW (tot),             37.63 MW (min),             37.63 MW (max), using processor specific storage

 CPU Time for READ_OSV_SBUF:         0.01 sec. Elapsed time:     0.02 sec. Memory usage:    12.35 MW (max).
 CPU Time for PNO_SMAT:              3.82 sec. Elapsed time:     4.06 sec. Memory usage:    12.31 MW (max).

 Denominator shift:          0.2000

 ITER.      SQ.NORM     CORR.ENERGY   TOTAL ENERGY   ENERGY CHANGE     VAR    DIIS
   1      0.42199418    -1.46343026  -380.45524946    -1.46343026  0.60D-02   1  1
   2      0.45473372    -1.48438098  -380.47620018    -0.02095072  0.44D-03   2  2
   3      0.47712221    -1.48583445  -380.47765365    -0.00145347  0.25D-04   3  3
   4      0.48055836    -1.48590298  -380.47772218    -0.00006853  0.15D-05   4  4
   5      0.48072129    -1.48590787  -380.47772707    -0.00000489  0.96D-07   5  5
   6      0.48065124    -1.48590816  -380.47772735    -0.00000029  0.63D-08   6  6

                                            PNO-LMP2        PNO-LMP2_CORR
  PNO-LMP2 correlation energy          -1.485908156492    -1.486237098272
 !PNO-LMP2 total energy              -380.477727354040  -380.478056295820

 CPU Time for PNO-LMP2:              5.39 sec. Elapsed time:     5.88 sec. Memory usage:    13.84 MW (max).

 PNO-LMP2 energy contributions
 =============================

                            OSV-LMP2(SC)     PNO-LMP2    PNO-SCS-LMP2   %(PNO/OSV)  AVDOM(PNO)
 Strong pair energy:        -1.42687703    -1.48590816    -1.45321700     104.14       98.7
 Close pair energy:          0.00000000     0.00000000     0.00000000       0.00        0.0
 Weak pair energy :          0.00000000     0.00000000     0.00000000       0.00        0.0
 Distant pair energy:        0.00000000     0.00000000     0.00000000       0.00        0.0
 Total correl. energy:      -1.42687703    -1.48590816    -1.45321700     104.14       98.7

 GA space for pno_smat:             37.63 MW (tot),             37.63 MW (min),             37.63 MW (max), using processor specific storage

 CPU Time for READ_OSV_SBUF:         0.02 sec. Elapsed time:     0.11 sec. Memory usage:    12.54 MW (max).
 CPU Time for PNO_SMAT:              4.43 sec. Elapsed time:     4.69 sec. Memory usage:    12.50 MW (max).

 Denominator shift:          0.2000

 ITER.      SQ.NORM     CORR.ENERGY   TOTAL ENERGY   ENERGY CHANGE     VAR    DIIS
   1      0.48065161    -1.48590817  -380.47772737    -1.48590817  0.10D-08   1  1
   2      0.48064993    -1.48590818  -380.47772737    -0.00000000  0.19D-09   2  2

 LMP2 results with LCCSD domains:
 ================================
                                            PNO-LMP2        PNO-LMP2_CORR
  PNO-LMP2 correlation energy          -1.485908177341    -1.486237098272
  PNO-LMP2 total energy              -380.477727374889  -380.478056295820

  PNO-LMP2 domain correction           -0.000328920931

 CPU Time for PNO-LMP2(tot):        56.71 sec. Elapsed time:    58.78 sec. Memory usage:    64.68 MW (max).

 Energy thresholds for pair classes:  THRCLOSE=1.00D-04  THRWEAK= 1.00D-05  THRDISTC=0.00D+00

 Strong and close pairs optimized in LCCSD, close pair residuals are approximated (keepcls=1).

 Number of optimized pairs:         210
 Number of strong pairs:            185
 Number of close pairs:              25
 Number of weak pairs:                0
 Total number of pairs:             210

 Length of pair-specific S-blocks:   765.11 MW,  length of unique S-blocks   213.95 MW

 CPU Time for LCC_opdom:             0.08 sec. Elapsed time:     0.10 sec. Memory usage:     0.85 MW (max).
 CPU Time for LCC_float:             0.01 sec. Elapsed time:     0.01 sec. Memory usage:     0.47 MW (max).

 CPU Time for LCC_opdom:             0.08 sec. Elapsed time:     0.09 sec. Memory usage:     0.85 MW (max).
 CPU Time for LCC_load:              0.05 sec. Elapsed time:     0.04 sec. Memory usage:    11.37 MW (max).

 Estimated GA usage of PNO-LCCSD integrals:                      0.00 MW
 Maximum GA usage after allocating GAs for CCSD integrals:       0.00 MW

 CPU Time for CCSD integrals:     1432.01 sec. Elapsed time:  1800.73 sec. Memory usage:    94.13 MW (max).

 GA space for pno_smat:            213.95 MW (tot),            213.95 MW (min),            213.95 MW (max), using node specific storage
 CPU Time for OSV_SMAT_LCC:          0.47 sec. Elapsed time:     0.50 sec. Memory usage:   101.28 MW (max).
 CPU Time for READ_OSV_SBUF:         0.00 sec. Elapsed time:     0.00 sec. Memory usage:   101.28 MW (max).
 CPU Time for PNO_SMAT_LCC:         20.09 sec. Elapsed time:    21.49 sec. Memory usage:    94.90 MW (max).

 Current GA usage:                   0.00 MW.  Maximum GA usage up to this point:            0.00 MW

 Solving PNO-LCCSD equations

 K-Operators in non-linear terms are projected

 Close pairs are approximated (keepcls=1, max_ijkl=0, skip_ijkl=0, maxik=0)

 Weak pairs pairs are treated by CEPA(2)

 Denominator shifts:     0.15 (singles),  0.20 (doubles)

 ITER.      SQ.NORM     CORR.ENERGY   TOTAL ENERGY   ENERGY CHANGE     VAR        VART1     DIIS     TIME
    1     0.49785503    -1.42226850  -380.41408769     0.06363968    0.79D-02    0.17D-01   1  1   174.02
    2     0.46712558    -1.47899662  -380.47081582    -0.05672812    0.17D-02    0.74D-03   2  2   346.55
    3     0.51959825    -1.48503537  -380.47685456    -0.00603875    0.28D-03    0.71D-03   3  3   519.55
    4     0.54338000    -1.48760349  -380.47942268    -0.00256812    0.66D-04    0.17D-03   4  4   693.37
    5     0.55697027    -1.48899186  -380.48081105    -0.00138837    0.16D-04    0.53D-04   5  5   868.66
    6     0.56295349    -1.48938529  -380.48120449    -0.00039344    0.50D-05    0.17D-04   6  6  1041.20
    7     0.56677844    -1.48966672  -380.48148591    -0.00028142    0.13D-05    0.40D-05   7  7  1214.68
    8     0.56837942    -1.48978525  -380.48160445    -0.00011854    0.39D-06    0.11D-05   8  8  1391.61
    9     0.56883163    -1.48981514  -380.48163433    -0.00002988    0.13D-06    0.38D-06   1  8  1572.62
   10     0.56904342    -1.48981731  -380.48163651    -0.00000218    0.35D-07    0.14D-06   2  8  1746.94
   11     0.56910052    -1.48983139  -380.48165058    -0.00001407    0.12D-07    0.42D-07   3  8  1922.15
   12     0.56909933    -1.48982457  -380.48164377     0.00000681    0.37D-08    0.14D-07   4  8  2097.85
   13     0.56911197    -1.48982722  -380.48164642    -0.00000265    0.12D-08    0.43D-08   5  8  2269.25
   14     0.56910829    -1.48982581  -380.48164501     0.00000141    0.37D-09    0.17D-08   6  8  2442.91
   15     0.56911310    -1.48982625  -380.48164545    -0.00000044    0.14D-09    0.61D-09   7  8  2620.66

 Convergence reached

  T1 diagnostic   0.02552
  D1 diagnostic   0.09070
   
  Reference energy                   -378.991819197548

  Correlation contributions without domain correction:

  PNO-LCCSD singles energy              0.001089790980
  PNO-LCCSD strong pair energy         -1.489539796902
  PNO-LCCSD close pair energy          -0.001376242638
  PNO-CEPA(2) weak pair energy          0.000000000000
  PNO-SCS-LMP2 distant pair energy      0.000000000000

  Results including domain correction:

  PNO-LMP2 correction                  -0.000328920931
  PNO-LCCSD correlation energy         -1.490155169491
 !PNO-LCCSD total energy             -380.481974367039

 Maximum stack memory usage in PNO-LCCSD iterations: 108.05 MW
 Maximum GA memory usage up to this point: .00 MW
 Maximum local disk usage in MB: 36385.32 (current)   36385.32 (maximum)   36385.32 (average)
 Maximum local disk usage per node: 36385.32 MB

 CPU Time for PNO_LCCSD(it):      2037.17 sec. Elapsed time:  2620.74 sec. Memory usage:    96.31 MW (max).

 GA_Put processed 1010.71 MW globally, average elapsed time per process: 7.01 sec
 GA_Get processed 259560.04 MW globally, average elapsed time per process: 402.20 sec

 REMARK: Memory usage printed may not be correct.
 CPU Time for PNO-LCCSD(tot):     3489.97 sec. Elapsed time:  4450.45 sec. Memory usage:   101.28 MW (max).

 Direct file usage                  19.78 MB (local),           19.78 MB (max),             19.78 MB (tot)

 Max. memory usage (overall):      101.28 MW (local),          101.28 MW (max),            101.28 MW (tot)
 Max. GA usage (overall):            0.00 MW (local),            0.00 MW (max),              0.00 MW (tot)
 Max. memory+GA usage:             101.28 MW (local),          101.28 MW (max),            101.28 MW (tot)


 **********************************************************************************************************************************
 DATASETS  * FILE   NREC   LENGTH (MB)   RECORD NAMES
              1      19       37.97       500      610      700      900      950      970     1000      129      960     1100   
                                          VAR    BASINP    GEOM    SYMINP    ZMAT    AOBASIS   BASIS     P2S    ABASIS      S 
                                         1400     1410     1200     1210     1080     1600     1650     1700      960(1)
                                           T        V       H0       H01     AOSYM     SMH    MOLCAS    OPER    ABASIS    

              2       4        8.12       700     1000      520     2100   
                                         GEOM     BASIS   MCVARS     RHF  

 PROGRAMS   *        TOTAL PNO-LCCSD     DF-HF       INT
 CPU TIMES  *      3620.86   3546.91     73.27      0.55
 REAL TIME  *      4587.91 SEC
 DISK USED  *       333.62 MB
 **********************************************************************************************************************************

 PNO-LCCSD/aug-cc-pVTZ energy=   -380.481974367039

       PNO-LCCSD           DF-HF
   -380.48197437   -378.99181920
 **********************************************************************************************************************************
 Molpro calculation terminated
