
 Primary working directories    : /var/tmp/pbs.397535.bp1/molpro.Oip3DbQbRW
 Secondary working directories  : /var/tmp/pbs.397535.bp1/molpro.Oip3DbQbRW
 Wavefunction directory         : /home/lb17101/molpro_test/inp/
 Main file repository           : /home/lb17101/molpro_test/inp/

 id        : uob

 Nodes                         nprocs
 bp1-13-15-01.data.bp.acrc.priv    1

 Using customized tuning parameters: mindgm=1; mindgv=20; mindgc=4; mindgr=1; noblas=0; minvec=7
 default implementation of scratch files=df  


 Variables initialized (934), CPU time= 0.00 sec
 geomtyp=xyz
 nosym
 noorient
 geometry={
  C      -2.091519498982       0.663043453157      -0.122053372925
  C      -1.135286809379      -0.185813580498       0.172556835647
  C      -0.490884357517      -1.129531703890      -0.666088918525
  N       0.914911653414      -0.865243264593      -1.007316564659
  C       1.179619123146       0.201038616350      -0.129320422719
  N       2.629464512129       0.321623784546      -0.043581663675
  O       0.190716059238       0.856149353555       0.214505259689
  H      -2.943909037498       0.987317382411      -0.897784981121
  H      -1.000079762372      -1.312793135928       0.454901894400
  H      -1.546832387924       3.368505243977       0.125242808235
  H      -0.652468916274      -2.089954161295      -1.177272407472
  H       3.914317283451       0.198014819584       1.106415737039
  H       3.050616863359       0.063839747637      -2.502743914918
 }
 basis=avtz
 df-hf
 df-ccsd
 Commands  initialized (763), CPU time= 0.01 sec, 617 directives.
 Default parameters read. Elapsed time= 0.08 sec

 Checking input...
 Passed
1


                                         ***  PROGRAM SYSTEM MOLPRO  ***
                                       Copyright, TTI GmbH Stuttgart, 2015
                                    Version 2019.2 linked Oct 25 2019 22:50:27


 **********************************************************************************************************************************
 LABEL *                                                                                 
  64 bit serial version                                                                  DATE: 27-Sep-20          TIME: 12:17:48  
 **********************************************************************************************************************************

 SHA1:             8dbd9ae1082e4ce945b0f27595c9eb2d4aa09004
 **********************************************************************************************************************************
 SETTING GEOMTYP        =    XYZ

 Variable memory set to 8192000000 words,  buffer space 

 ZSYMEL=NOSYM

 SETTING BASIS          =    AVTZ


 Recomputing integrals since basis changed


 Using spherical harmonics

 Library entry C      S aug-cc-pVTZ          selected for orbital group  1
 Library entry C      P aug-cc-pVTZ          selected for orbital group  1
 Library entry C      D aug-cc-pVTZ          selected for orbital group  1
 Library entry C      F aug-cc-pVTZ          selected for orbital group  1
 Library entry N      S aug-cc-pVTZ          selected for orbital group  2
 Library entry N      P aug-cc-pVTZ          selected for orbital group  2
 Library entry N      D aug-cc-pVTZ          selected for orbital group  2
 Library entry N      F aug-cc-pVTZ          selected for orbital group  2
 Library entry O      S aug-cc-pVTZ          selected for orbital group  5
 Library entry O      P aug-cc-pVTZ          selected for orbital group  5
 Library entry O      D aug-cc-pVTZ          selected for orbital group  5
 Library entry O      F aug-cc-pVTZ          selected for orbital group  5
 Library entry H      S aug-cc-pVTZ          selected for orbital group  6
 Library entry H      P aug-cc-pVTZ          selected for orbital group  6
 Library entry H      D aug-cc-pVTZ          selected for orbital group  6


 PROGRAM * SEWARD (Integral evaluation for generally contracted gaussian basis sets)     Author: Roland Lindh, 1990

 Geometry written to block  1 of record 700


 Point group  C1  



 ATOMIC COORDINATES

 NR  ATOM    CHARGE       X              Y              Z

   1  C       6.00   -3.952399037    1.252970535   -0.230647447
   2  C       6.00   -2.145381143   -0.351136777    0.326085160
   3  C       6.00   -0.927636995   -2.134505569   -1.258725631
   4  N       7.00    1.728932453   -1.635072801   -1.903552428
   5  C       6.00    2.229157074    0.379907925   -0.244380181
   6  N       7.00    4.968967782    0.607780868   -0.082357408
   7  O       8.00    0.360401120    1.617887800    0.405356193
   8  H       1.00   -5.563181817    1.865759451   -1.696567733
   9  H       1.00   -1.889876854   -2.480819485    0.859639994
  10  H       1.00   -2.923089574    6.365552360    0.236674607
  11  H       1.00   -1.232987557   -3.949440978   -2.224722424
  12  H       1.00    7.396987630    0.374193778    2.090822723
  13  H       1.00    5.764830383    0.120639639   -4.729500559

 Bond lengths in Bohr (Angstrom)

 1-2  2.479601810  1-8  2.262532586  2-3  2.678606037  2-7  3.187834128  2-9  2.210319352
     ( 1.312148770)     ( 1.197280683)     ( 1.417457272)     ( 1.686929173)     ( 1.169650630)

  3- 4  2.778955904   3- 9  2.352299257   3-11  2.078552214   4- 5  2.657672768   5- 6  2.754040699
       ( 1.470560135)       ( 1.244783160)       ( 1.099922463)       ( 1.406379863)       ( 1.457375576)

 5-7  2.333880962
     ( 1.235036618)

 Bond angles

  1-2-3  128.98908164   1-2-7  100.30181768   1-2-9  139.61961400   2-1-8  147.08871343

  2- 3- 4  116.88685225   2- 3- 9   51.62800747   2- 3-11  142.14123280   2- 7- 5  107.14762391

  2-9-3   71.82304278   3-2-7   93.93326232   3-2-9   56.54894975   3-4-5   99.86502249

  4- 3- 9  128.79018793   4- 3-11  100.92493702   4- 5- 6  106.66089759   4- 5- 7  115.16687326

  6- 5- 7  137.41743133   7- 2- 9  119.88549847   9- 3-11  103.29008625

 NUCLEAR CHARGE:                   52
 NUMBER OF PRIMITIVE AOS:         631
 NUMBER OF SYMMETRY AOS:          556
 NUMBER OF CONTRACTIONS:          460   (  460A   )
 NUMBER OF CORE ORBITALS:           7   (    7A   )
 NUMBER OF VALENCE ORBITALS:       34   (   34A   )


 NUCLEAR REPULSION ENERGY  283.43242898


 Eigenvalues of metric

         1 0.700E-05 0.102E-04 0.112E-04 0.164E-04 0.221E-04 0.275E-04 0.448E-04 0.616E-04


 OPERATOR DM      FOR CENTER  0  COORDINATES:    0.000000    0.000000    0.000000


 **********************************************************************************************************************************
 DATASETS  * FILE   NREC   LENGTH (MB)   RECORD NAMES
              1      18       37.94       500      610      700      900      950      970     1000      129      960     1100   
                                          VAR    BASINP    GEOM    SYMINP    ZMAT    AOBASIS   BASIS     P2S    ABASIS      S 
                                         1400     1410     1200     1210     1080     1600     1650     1700   
                                           T        V       H0       H01     AOSYM     SMH    MOLCAS    OPER   

 PROGRAMS   *        TOTAL       INT
 CPU TIMES  *         1.11      1.02
 REAL TIME  *         8.69 SEC
 DISK USED  *        38.55 MB
 **********************************************************************************************************************************


 PROGRAM * RHF-SCF (CLOSED SHELL)       Authors: W. Meyer, H.-J. Werner


 NUMBER OF ELECTRONS:      26+   26-    SPACE SYMMETRY=1    SPIN SYMMETRY: Singlet 
 CONVERGENCE THRESHOLDS:    1.00E-05 (Density)    1.00E-07 (Energy)
 INTEGRAL THRESHOLDS:       1.00E-11 (Initial)    1.00E-11 (Final)
 MAX. NUMBER OF ITERATIONS:       60
 INTERPOLATION TYPE:            DIIS
 INTERPOLATION STEPS:              2 (START)      1 (STEP)
 LEVEL SHIFTS:                  0.00 (CLOSED)  0.00 (OPEN) 




 Basis set AUG-CC-PVTZ/JKFIT generated.  Number of basis functions:   1004 

 Orbital guess generated from atomic densities. Full valence occupancy:   41
 Using density fitting in orbital guess

 Coulomb and exchange fitting
 Thresholds for fitting:       THRAO_COUL= 1.0D-14    THRAO_EXCH= 1.0D-12    THRMO= 1.0D-11    THRPROD= 1.0D-11    THRASM= 1.0D-11
                               THR2HLF=    1.0D-11

 Molecular orbital dump at record        2100.2

 Initial occupancy:  26

 ITERATION   DDIFF            GRAD            ENERGY        2-EL.EN.            DIPOLE MOMENTS         DIIS   CPU(IT)  CPU(TOT)  ORB.
    1      0.000D+00      0.000D+00      -337.57121669    800.589814    1.62261   -5.43744   -1.20583    0      3.1      7.3     start
    2      0.000D+00      0.370D-02      -337.59493969    796.590370   -3.64091    1.76039    2.15441    1      3.1     10.3     diag
    3      0.615D-02      0.368D-02      -337.77440853    798.700849    0.12510   -3.14079   -0.92432    2      3.5     13.8     diag
    4      0.372D-02      0.685D-03      -337.78567815    797.201507   -1.30891   -2.21915    0.30487    3      3.7     17.6     diag
    5      0.110D-02      0.482D-03      -337.79120389    797.599632   -0.58553   -2.69435   -0.20938    4      3.9     21.5     diag
    6      0.613D-03      0.185D-03      -337.79290471    797.367620   -0.80461   -2.67233   -0.10625    5      3.8     25.3     diag
    7      0.327D-03      0.129D-03      -337.79402948    797.158101   -0.56801   -2.84442   -0.16703    6      3.6     28.9     diag
    8      0.307D-03      0.924D-04      -337.79450701    797.191619   -0.58759   -2.84147   -0.13964    7      3.8     32.7     diag
    9      0.167D-03      0.501D-04      -337.79490738    797.077827   -0.47939   -2.94188   -0.14761    8      3.2     35.9     diag
   10      0.209D-03      0.392D-04      -337.79513701    797.073844   -0.42265   -2.96587   -0.14469    9      3.2     39.0     orth
   11      0.178D-03      0.224D-04      -337.79524569    797.064864   -0.34618   -3.00445   -0.15316    9      3.5     42.6     diag
   12      0.133D-03      0.166D-04      -337.79530257    797.072761   -0.30308   -3.00834   -0.15568    9      3.4     46.0     diag
   13      0.944D-04      0.122D-04      -337.79533376    797.087778   -0.26724   -3.01430   -0.16520    9      3.6     49.5     diag
   14      0.635D-04      0.102D-04      -337.79536332    797.098573   -0.23113   -3.00978   -0.16822    9      3.7     53.2     diag
   15      0.713D-04      0.922D-05      -337.79538291    797.111842   -0.20024   -3.01247   -0.17363    9      3.1     56.3     diag
   16      0.571D-04      0.749D-05      -337.79540555    797.127493   -0.16426   -3.00699   -0.17782    9      3.4     59.7     diag
   17      0.788D-04      0.632D-05      -337.79541590    797.136881   -0.14174   -3.00578   -0.18230    9      3.3     63.0     diag
   18      0.419D-04      0.567D-05      -337.79543216    797.156016   -0.09429   -3.00349   -0.18434    9      3.3     66.3     diag
   19      0.100D-03      0.378D-05      -337.79543617    797.159531   -0.08045   -3.00372   -0.18709    9      3.2     69.5     fixocc
   20      0.293D-04      0.311D-05      -337.79544019    797.169148   -0.05965   -3.00044   -0.18690    9      3.1     72.6     orth
   21      0.466D-04      0.228D-05      -337.79544200    797.171410   -0.04944   -3.00007   -0.18697    9      3.6     76.2     diag
   22      0.243D-04      0.157D-05      -337.79544314    797.176680   -0.04040   -2.99673   -0.18631    9      3.3     79.5     diag
   23      0.251D-04      0.112D-05      -337.79544345    797.179423   -0.03411   -2.99537   -0.18644    9      3.5     83.0     diag
   24      0.159D-04      0.703D-06      -337.79544353    797.179205   -0.03435   -2.99451   -0.18587    9      3.6     86.6     diag
   25      0.396D-05      0.531D-06      -337.79544355    797.179824   -0.03444   -2.99442   -0.18593    0      3.2     89.8     orth

 Final occupancy:  26

 !RHF STATE  1.1 Energy              -337.795443552926
 Nuclear energy                       283.43242898
 One-electron energy                -1019.81778440
 Two-electron energy                  398.58991186
 Virial quotient                       -1.00394513
 !RHF STATE  1.1 Dipole moment         -0.03443622    -2.99441571    -0.18593490
 Dipole moment /Debye                  -0.08752240    -7.61054708    -0.47256842

 Orbital energies:

         1.1          2.1          3.1          4.1          5.1          6.1          7.1          8.1          9.1         10.1
    -20.641924   -15.653732   -15.619404   -11.429235   -11.403029   -11.391641   -11.345605    -1.505475    -1.258761    -1.195458

        11.1         12.1         13.1         14.1         15.1         16.1         17.1         18.1         19.1         20.1
     -1.085615    -0.990783    -0.844845    -0.808977    -0.709438    -0.694130    -0.672963    -0.628430    -0.602696    -0.537289

        21.1         22.1         23.1         24.1         25.1         26.1         27.1         28.1
     -0.503346    -0.465592    -0.404159    -0.366327    -0.336169    -0.223955    -0.107191    -0.029843


 HOMO     26.1    -0.223955 =      -6.0941eV
 LUMO     27.1    -0.107191 =      -2.9168eV
 LUMO-HOMO         0.116764 =       3.1773eV


 **********************************************************************************************************************************
 DATASETS  * FILE   NREC   LENGTH (MB)   RECORD NAMES
              1      18       37.94       500      610      700      900      950      970     1000      129      960     1100   
                                          VAR    BASINP    GEOM    SYMINP    ZMAT    AOBASIS   BASIS     P2S    ABASIS      S 
                                         1400     1410     1200     1210     1080     1600     1650     1700   
                                           T        V       H0       H01     AOSYM     SMH    MOLCAS    OPER   

              2       4        8.12       700     1000      520     2100   
                                         GEOM     BASIS   MCVARS     RHF  

 PROGRAMS   *        TOTAL     DF-HF       INT
 CPU TIMES  *        90.92     89.81      1.02
 REAL TIME  *       103.22 SEC
 DISK USED  *       200.10 MB
 **********************************************************************************************************************************


 PROGRAM * CCSD (Closed-shell coupled cluster)     Authors: C. Hampel, H.-J. Werner, 1991, M. Deegan, P.J. Knowles, 1992

                    Density fitting coupled cluster methods (ITF), W. Gyorffy, 2015


 Basis set AUG-CC-PVTZ/MP2FIT generated. Number of basis functions:   1018 

 Convergence thresholds:  THRVAR = 1.00D-08  THRDEN = 1.00D-06

 Number of core orbitals:           7 (   7 )
 Number of closed-shell orbitals:  19 (  19 )
 Number of external orbitals:     434 ( 434 )

 Molecular orbitals read from record     2100.2  Type=RHF/CANONICAL (state 1.1)
 Enter DF-CCSD [ITF]

  Reference energy:                  -337.795443552928

  MP2 correlation energy:              -1.491539088931
  MP2 total energy:                  -339.286982641859

 Transformed 3-ext integrals are computed and stored!

 Transformed 4-ext integrals are computed and stored!

 ITER.      SQ.NORM     CORR.ENERGY   TOTAL ENERGY   ENERGY CHANGE        DEN1      VAR(S)    VAR(P)  DIIS     TIME
   1      1.70304792    -1.49690736  -339.29235091    -0.00536827     0.10453509  8.94e-02  5.69e-02  1  1  2184.34
   2      1.90368293    -1.51062550  -339.30606905    -0.01371814    -0.09422876  9.74e-03  3.64e-02  2  2  4141.75
   3      2.00530859    -1.50831536  -339.30375891     0.00231014     0.00554882  2.47e-03  6.73e-03  3  3  6083.18
   4      2.15832897    -1.51826454  -339.31370810    -0.00994918    -0.01445855  7.99e-04  5.56e-03  4  4  8036.76
   5      2.38732386    -1.52638347  -339.32182702    -0.00811892    -0.01207416  3.09e-04  3.54e-03  5  5  9985.08
   6      2.58800452    -1.53055748  -339.32600103    -0.00417401    -0.00686447  3.05e-04  2.41e-03  6  0 11930.47
   7      2.88754469    -1.53411941  -339.32956296    -0.00356193    -0.00822414  6.33e-05  1.36e-03  6  1 13885.16
   8      3.13475010    -1.53385990  -339.32930346     0.00025951    -0.00513157  4.68e-05  5.66e-04  6  2 15836.56
   9      3.32554998    -1.53258032  -339.32802388     0.00127958    -0.00362532  3.82e-05  2.75e-04  6  3 17832.14
  10      3.44044100    -1.52979175  -339.32523530     0.00278857    -0.00230951  8.16e-06  6.72e-05  6  4 19809.61
  11      3.42662313    -1.52844358  -339.32388713     0.00134817     0.00029554  5.99e-06  2.60e-05  6  5 21754.08
  12      3.41096061    -1.52875376  -339.32419731    -0.00031019     0.00009429  9.40e-07  1.41e-05  6  0 23752.63
  13      3.41352374    -1.52881492  -339.32425847    -0.00006116    -0.00012135  8.93e-07  6.96e-06  6  1 25692.98
  14      3.42253971    -1.52883234  -339.32427589    -0.00001742    -0.00023449  2.96e-07  4.02e-06  6  2 27599.37
  15      3.42710210    -1.52873538  -339.32417893     0.00009696    -0.00008948  6.35e-07  2.23e-06  6  3 29561.86
  16      3.43209838    -1.52865038  -339.32409393     0.00008499    -0.00013549  1.85e-07  1.78e-06  6  4 31495.04
  17      3.43459371    -1.52859568  -339.32403923     0.00005470    -0.00006168  3.12e-07  1.31e-06  6  5 33483.33
  18      3.43607261    -1.52859540  -339.32403895     0.00000028    -0.00007130  1.14e-07  1.06e-06  6  0 35449.46
  19      3.43652592    -1.52859771  -339.32404126    -0.00000231    -0.00005714  1.26e-07  6.58e-07  6  1 37417.92
  20      3.43541676    -1.52865316  -339.32409671    -0.00005545    -0.00002369  4.87e-08  4.02e-07  6  2 39388.46
  21      3.43369753    -1.52870822  -339.32415177    -0.00005506    -0.00000154  3.45e-08  2.03e-07  6  3 41333.68
  22      3.43172566    -1.52876023  -339.32420378    -0.00005201     0.00001103  8.52e-09  1.06e-07  6  4 43253.74
  23      3.43042427    -1.52881466  -339.32425821    -0.00005443     0.00000744  1.03e-08  4.64e-08  6  5 45188.99
  24      3.43074435    -1.52881145  -339.32425501     0.00000320     0.00000130  2.35e-09  3.76e-08  6  0 47098.04
  25      3.43052918    -1.52882340  -339.32426695    -0.00001195    -0.00000280  2.21e-09  1.97e-08  6  1 49001.75
  26      3.43108100    -1.52881616  -339.32425971     0.00000724    -0.00000892  6.32e-10  1.21e-08  6  2 50905.99
  27      3.43147445    -1.52881192  -339.32425548     0.00000423    -0.00001094  5.78e-10  6.20e-09  6  3 52808.91
  28      3.43179570    -1.52880791  -339.32425146     0.00000402    -0.00001021  2.29e-10  3.13e-09  6  4 54720.52
  29      3.43196695    -1.52880742  -339.32425098     0.00000048    -0.00000780  1.19e-10  1.04e-09       56632.55

 Norm of t1 vector:      0.90004930     S-energy:     -0.00002834   T1 diagnostic:  0.10324273

 Time per iteration:                   1952.86 sec

 RESULTS
 =======

  Reference energy:                  -337.795443552928
  CCSD correlation energy:             -1.528807424129
 !CCSD total energy:                 -339.324250977057





 **********************************************************************************************************************************
 DATASETS  * FILE   NREC   LENGTH (MB)   RECORD NAMES
              1      18       37.94       500      610      700      900      950      970     1000      129      960     1100   
                                          VAR    BASINP    GEOM    SYMINP    ZMAT    AOBASIS   BASIS     P2S    ABASIS      S 
                                         1400     1410     1200     1210     1080     1600     1650     1700   
                                           T        V       H0       H01     AOSYM     SMH    MOLCAS    OPER   

              2       4        8.12       700     1000      520     2100   
                                         GEOM     BASIS   MCVARS     RHF  

 PROGRAMS   *        TOTAL   DF-CCSD     DF-HF       INT
 CPU TIMES  *     57912.80  57821.86     89.81      1.02
 REAL TIME  *    106202.37 SEC
 DISK USED  *       171.37 GB
 **********************************************************************************************************************************

 DF-CCSD/aug-cc-pVTZ energy=   -339.324250977057

         DF-CCSD           DF-HF
   -339.32425098   -337.79544355
 **********************************************************************************************************************************
 Molpro calculation terminated
