
 Primary working directories    : /var/tmp/pbs.368277.bp1/molpro.10mLWbQOv9
 Secondary working directories  : /var/tmp/pbs.368277.bp1/molpro.10mLWbQOv9
 Wavefunction directory         : /home/lb17101/molpro_test/inp/lowmem/
 Main file repository           : /home/lb17101/molpro_test/inp/lowmem/

 id        : uob

 Nodes                         nprocs
 bp1-13-13-02.data.bp.acrc.priv    1

 Using customized tuning parameters: mindgm=1; mindgv=20; mindgc=4; mindgr=1; noblas=0; minvec=7
 default implementation of scratch files=df  


 Variables initialized (934), CPU time= 0.01 sec
 geomtyp=xyz
 nosym
 noorient
 geometry={
  O       0.316292055736      -0.124960524545       1.757968661833
  C       0.232577462016      -0.538661708712       0.462666966351
  C      -0.723794322699      -1.023964868199      -0.618813666053
  C      -1.478688923176       0.283342853574      -0.521850051125
  C      -1.745214902596       1.382233282003      -0.506642760834
  C       1.399795339529       0.242865209382      -0.040514005284
  C       2.372992364427       0.952133049175      -0.780637927547
  H       0.353265030169       1.039914366684       1.639163797468
  H       1.076419883419      -1.574154198331       0.127187780010
  H      -1.109615428460      -2.174432056438      -0.119839084829
  H       0.079168877958      -1.061355668680      -1.642309835516
  H      -2.077630208711       2.243686811813      -1.241316814978
  H       3.202052423072       0.303222578519      -0.052430641190
 }
 basis={
 default=avdz
 set,jkfit,context=jkfit
 default,avtz
 set,mp2fit,context=mp2fit
 default,avdz
 set,ri,context=jkfit
 default,avtz
 }
 explicit,ri_basis=ri,df_basis=mp2fit,df_basis_exch=jkfit
 df-hf,basis=jkfit
 pno-lccsd(t),domopt=tight
 Commands  initialized (763), CPU time= 0.00 sec, 617 directives.
 Default parameters read. Elapsed time= 0.08 sec

 Checking input...
 Passed
1


                                         ***  PROGRAM SYSTEM MOLPRO  ***
                                       Copyright, TTI GmbH Stuttgart, 2015
                                    Version 2019.2 linked Oct 25 2019 22:50:27


 **********************************************************************************************************************************
 LABEL *                                                                                 
  64 bit serial version                                                                  DATE: 22-Sep-20          TIME: 21:29:48  
 **********************************************************************************************************************************

 SHA1:             8dbd9ae1082e4ce945b0f27595c9eb2d4aa09004
 **********************************************************************************************************************************
 SETTING GEOMTYP        =    XYZ

 Variable memory set to 1024000000 words,  buffer space 

 ZSYMEL=NOSYM

 SETTING BASIS          =    AVDZ


 Recomputing integrals since basis changed


 Using spherical harmonics

 Library entry O      S aug-cc-pVDZ          selected for orbital group  1
 Library entry O      P aug-cc-pVDZ          selected for orbital group  1
 Library entry O      D aug-cc-pVDZ          selected for orbital group  1
 Library entry C      S aug-cc-pVDZ          selected for orbital group  2
 Library entry C      P aug-cc-pVDZ          selected for orbital group  2
 Library entry C      D aug-cc-pVDZ          selected for orbital group  2
 Library entry H      S aug-cc-pVDZ          selected for orbital group  3
 Library entry H      P aug-cc-pVDZ          selected for orbital group  3


 PROGRAM * SEWARD (Integral evaluation for generally contracted gaussian basis sets)     Author: Roland Lindh, 1990

 Geometry written to block  1 of record 700


 Point group  C1  



 ATOMIC COORDINATES

 NR  ATOM    CHARGE       X              Y              Z

   1  O       8.00    0.597705361   -0.236141168    3.322079306
   2  C       6.00    0.439507706   -1.017923103    0.874313853
   3  C       6.00   -1.367773040   -1.935013162   -1.169388351
   4  C       6.00   -2.794317088    0.535440393   -0.986153675
   5  C       6.00   -3.297978194    2.612042343   -0.957416061
   6  C       6.00    2.645229822    0.458948731   -0.076560374
   7  C       6.00    4.484305664    1.799270697   -1.475191886
   8  H       1.00    0.667574156    1.965153346    3.097570651
   9  H       1.00    2.034138775   -2.974720313    0.240350071
  10  H       1.00   -2.096869263   -4.109081063   -0.226463049
  11  H       1.00    0.149607497   -2.005671535   -3.103515801
  12  H       1.00   -3.926152083    4.239953584   -2.345748814
  13  H       1.00    6.051002116    0.573007628   -0.099079552

 Bond lengths in Bohr (Angstrom)

 1-2  2.574444640  1-8  2.213816461  2-3  2.878200231  2-6  2.819667049  2-9  2.602655114
     ( 1.362337434)     ( 1.171501220)     ( 1.523077971)     ( 1.492103544)     ( 1.377265774)

  3- 4  2.858626179   3-10  2.479366989   3-11  2.459326187   4- 5  2.137001643   5-12  2.229835257
       ( 1.512719829)       ( 1.312024508)       ( 1.301419372)       ( 1.130852569)       ( 1.179978002)

  6- 7  2.671110823   7-13  2.419079172
       ( 1.413490976)       ( 1.280121569)

 Bond angles

  1-2-3  144.14163529   1-2-6   96.51775116   1-2-9  114.97743941   2-1-8  101.97409925

  2- 3- 4   89.56866075   2- 3-10  101.18658131   2- 3-11  100.37905865   2- 6- 7  167.95755643

  3- 2- 6  114.74859256   3- 2- 9   88.40698999   3- 4- 5  163.38762993   4- 3-10  125.92102315

  4- 3-11  112.52814726   4- 5-12  140.12525814   6- 2- 9   80.34978186   6- 7-13   83.89688914

 10- 3-11  117.08649087

 NUCLEAR CHARGE:                   50
 NUMBER OF PRIMITIVE AOS:         325
 NUMBER OF SYMMETRY AOS:          311
 NUMBER OF CONTRACTIONS:          215   (  215A   )
 NUMBER OF CORE ORBITALS:           7   (    7A   )
 NUMBER OF VALENCE ORBITALS:       34   (   34A   )


 NUCLEAR REPULSION ENERGY  253.91690295


 Basis set:  JKFIT                   
 Basis size:  1004
 Attributes:
 Sphericals:   T
 Basis set:  MP2FIT                  
 Basis size:   642
 Attributes:
 Sphericals:   T
 Basis set:  RI                      
 Basis size:  1004
 Attributes:
 Sphericals:   T

 **********************************************************************************************************************************


 Eigenvalues of metric

         1 0.272E-04 0.348E-04 0.405E-04 0.529E-04 0.791E-04 0.111E-03 0.130E-03 0.165E-03


 OPERATOR DM      FOR CENTER  0  COORDINATES:    0.000000    0.000000    0.000000


 **********************************************************************************************************************************
 DATASETS  * FILE   NREC   LENGTH (MB)   RECORD NAMES
              1      18       31.90       500      610      700      900      950      970     1000      129      960     1100   
                                          VAR    BASINP    GEOM    SYMINP    ZMAT    AOBASIS   BASIS     P2S    ABASIS      S 
                                         1400     1410     1200     1210     1080     1600     1650     1700   
                                           T        V       H0       H01     AOSYM     SMH    MOLCAS    OPER   

 PROGRAMS   *        TOTAL       INT
 CPU TIMES  *         0.44      0.34
 REAL TIME  *         1.37 SEC
 DISK USED  *        32.43 MB
 **********************************************************************************************************************************


 PROGRAM * RHF-SCF (CLOSED SHELL)       Authors: W. Meyer, H.-J. Werner


 NUMBER OF ELECTRONS:      25+   25-    SPACE SYMMETRY=1    SPIN SYMMETRY: Singlet 
 CONVERGENCE THRESHOLDS:    1.00E-05 (Density)    1.00E-07 (Energy)
 INTEGRAL THRESHOLDS:       1.00E-11 (Initial)    1.00E-11 (Final)
 MAX. NUMBER OF ITERATIONS:       60
 INTERPOLATION TYPE:            DIIS
 INTERPOLATION STEPS:              2 (START)      1 (STEP)
 LEVEL SHIFTS:                  0.00 (CLOSED)  0.00 (OPEN) 





 Orbital guess generated from atomic densities. Full valence occupancy:   41
 Using density fitting in orbital guess

 Coulomb and exchange fitting
 Thresholds for fitting:       THRAO_COUL= 1.0D-14    THRAO_EXCH= 1.0D-12    THRMO= 1.0D-11    THRPROD= 1.0D-11    THRASM= 1.0D-11
                               THR2HLF=    1.0D-11

 Molecular orbital dump at record        2100.2

 Initial occupancy:  25

 ITERATION   DDIFF            GRAD            ENERGY        2-EL.EN.            DIPOLE MOMENTS         DIIS   CPU(IT)  CPU(TOT)  ORB.
    1      0.000D+00      0.000D+00      -304.94212902    714.163764   -1.10004   -1.93063    0.52928    0      1.4      2.9     start
    2      0.000D+00      0.457D-02      -305.02254099    715.584822   -0.47214   -0.05525   -0.52875    1      1.3      4.3     diag
    3      0.110D-01      0.327D-02      -305.07436633    713.145544   -0.94582   -0.93918    0.02742    2      1.4      5.6     diag
    4      0.504D-02      0.872D-03      -305.08026549    714.474276   -0.79588   -0.79770   -0.15654    3      1.3      6.9     diag
    5      0.187D-02      0.346D-03      -305.08171203    714.031998   -0.83151   -0.79496   -0.12017    4      1.3      8.3     diag
    6      0.801D-03      0.139D-03      -305.08217604    714.093295   -0.82244   -0.78482   -0.15186    5      1.3      9.6     diag
    7      0.387D-03      0.791D-04      -305.08235813    714.112396   -0.81563   -0.78609   -0.14767    6      1.3     10.9     diag
    8      0.255D-03      0.406D-04      -305.08241467    714.110872   -0.81089   -0.78372   -0.15385    7      1.3     12.2     diag
    9      0.169D-03      0.162D-04      -305.08242211    714.109412   -0.80913   -0.78386   -0.15373    8      1.3     13.4     diag
   10      0.724D-04      0.556D-05      -305.08242278    714.109546   -0.80851   -0.78479   -0.15400    9      1.3     14.7     orth
   11      0.191D-04      0.265D-05      -305.08242295    714.110638   -0.80840   -0.78426   -0.15399    9      1.3     16.0     diag
   12      0.942D-05      0.138D-05      -305.08242302    714.109854   -0.80847   -0.78439   -0.15409    9      1.3     17.3     diag
   13      0.529D-05      0.777D-06      -305.08242303    714.110259   -0.80849   -0.78442   -0.15407    0      1.4     18.7     orth

 Final occupancy:  25

 !RHF STATE  1.1 Energy              -305.082423031746
 Nuclear energy                       253.91690295
 One-electron energy                 -916.05445554
 Two-electron energy                  357.05512956
 Virial quotient                       -1.00380096
 !RHF STATE  1.1 Dipole moment         -0.80848904    -0.78441584    -0.15407283
 Dipole moment /Debye                  -2.05483958    -1.99365562    -0.39158843

 Orbital energies:

         1.1          2.1          3.1          4.1          5.1          6.1          7.1          8.1          9.1         10.1
    -20.629218   -11.380482   -11.357368   -11.315807   -11.274426   -11.260753   -11.239718    -1.412948    -1.134604    -1.052786

        11.1         12.1         13.1         14.1         15.1         16.1         17.1         18.1         19.1         20.1
     -0.992111    -0.873539    -0.737076    -0.713252    -0.654574    -0.650644    -0.616419    -0.579248    -0.543654    -0.497576

        21.1         22.1         23.1         24.1         25.1         26.1         27.1
     -0.454066    -0.431029    -0.422377    -0.398086    -0.350338     0.025566     0.038631


 HOMO     25.1    -0.350338 =      -9.5332eV
 LUMO     26.1     0.025566 =       0.6957eV
 LUMO-HOMO         0.375904 =      10.2289eV


 **********************************************************************************************************************************
 DATASETS  * FILE   NREC   LENGTH (MB)   RECORD NAMES
              1      18       31.90       500      610      700      900      950      970     1000      129      960     1100   
                                          VAR    BASINP    GEOM    SYMINP    ZMAT    AOBASIS   BASIS     P2S    ABASIS      S 
                                         1400     1410     1200     1210     1080     1600     1650     1700   
                                           T        V       H0       H01     AOSYM     SMH    MOLCAS    OPER   

              2       4        4.10       700     1000      520     2100   
                                         GEOM     BASIS   MCVARS     RHF  

 PROGRAMS   *        TOTAL     DF-HF       INT
 CPU TIMES  *        19.15     18.70      0.34
 REAL TIME  *        21.99 SEC
 DISK USED  *       112.64 MB
 **********************************************************************************************************************************

 Basis set:  JKFIT                   
 Basis size:  1004
 Attributes:
 Sphericals:   T
 Basis set:  MP2FIT                  
 Basis size:   642
 Attributes:
 Sphericals:   T
 Basis set:  RI                      
 Basis size:  1004
 Attributes:
 Sphericals:   T

 World communicator: rank 0, size 1
 Shared-memory communicator: rank 0, size 1
 Current node: rank 0, 1 node(s) in total

 Restoring occupations from record    2100.2

 Program * PNO-LCCSD(T)   Authors:   H.-J. Werner (2012), M. Schwilk, Q. Ma (2016)

 Number of core orbitals:           7
 Number of closed-shell orbitals:  18
 Number of open-shell orbitals:     0
 Number of valence orbitals:       18
 Number of external orbitals:     190

 Basis set AUG-CC-PVDZ/MP2FIT generated. Number of basis functions:   642 

 USING TIGHT DOMAIN OPTIONS: THRLMO=0.20  IEXT=3  THROSV=  1.0D-10
                             THRPNO_LMP2=1.0D-08  THREN_LMP2=0.997
                             THRPNO_CC=  1.0D-08  THREN_CC=  0.997
                             THRTNO_T0=  1.0D-10  THRTNO_T=1.0D-07

 iclose= 0  iweak= 0  rclose= 0.00  rweak= 0.00  thrclos= 1.0D-04  thrweak= 1.0D-05  open-shell=F

 Use_GA=T  Use_PAO=T  PAO_pairdom=F  PAO_trans=T  LOCFIT= 1  LOCRI=F  EIJDIP=2  PROJECT_K=T

 Threshold for small PAO norm:    0.00D+00
 Threshold for redundancy check:  1.00D-06

 OPTIONS FOR CCSD:   method= LCCSD     icepa= -1  icepac=-1  icepaw= 2  keepcls=1  maxcls=1  maxclt=2  maxwkt=2  do_mp2w=F
                     project_k=T    project_j=ALL    idexp4_close=0

 OPTIONS FOR SINGLES IN CCSD:   isexp4=  1  isexp5= 0  isexp6= 0  project_je=T  project_s=WEAK
                                includeGE= 1  includeKEKJ= 1  includeJEKJ= 0  includeJ= 2  undress=T  project_ke=2

 Molecular orbitals read from record     2100.2  Type=RHF/CANONICAL (state 1.1)
 Orbital energies read from record       2100.2  Type=RHF/CANONICAL (state 1.1)
 Fock matrix read from record            2100.2  Type=RHF/TOTAL (state 1.1)

  Reference energy                   -305.082423031746


 Computing intrinsic bond orbitals
 =================================

 Basis set MINAO-AUTO-PP generated.      Number of basis functions:   41 

 Polarized AO type:                A = (O Ot + (1-O)(1-Ot)) P12
 Orthogonalization method:         Symmetric (Loewdin)
 Localization functional:          L = sum[A,i] <i|n_A|i>^4 -> max

 Localization group 1:  18 orbitals, occupancy  2.000
 Iterative localization: IB/PM,    9 iter; Final gradient 0.46E-08

 Summary of localized orbital composition:   [THRPRINT= 0.020]

   ORB  GRP  ORB.ENERGY      CENTERS/CHARGES
     8   1    -1.029594      O  1   1.221   C  2   0.766
     9   1    -1.016858      C  4   1.024   C  5   0.960
    10   1    -0.838936      C  6   1.078   C  2   0.911
    11   1    -0.832760      O  1   1.371   H  8   0.593   C  2   0.021
    12   1    -0.826577      C  6   1.098   C  7   0.898
    13   1    -0.821022      O  1   1.986
    14   1    -0.816961      C  2   1.041   C  3   0.909   C  4   0.022   (other: 0.027)
    15   1    -0.799606      C  4   1.049   C  3   0.934
    16   1    -0.673368      C  5   1.215   H 12   0.781
    17   1    -0.657414      C  3   1.138   H 11   0.820   (other: 0.042)
    18   1    -0.645895      C  3   1.126   H 10   0.852   (other: 0.022)
    19   1    -0.580467      O  1   1.925   C  2   0.030   (other: 0.046)
    20   1    -0.572117      C  2   0.954   H  9   0.893   C  6   0.099   (other: 0.053)
    21   1    -0.555166      C  7   0.918   H 13   0.802   C  6   0.271
    22   1    -0.490033      C  7   1.816   C  6   0.134   H 13   0.036
    23   1    -0.463752      C  4   1.047   C  5   0.934
    24   1    -0.461631      C  5   1.120   C  4   0.854   (other: 0.026)
    25   1    -0.432171      C  6   1.269   C  7   0.690   (other: 0.041)

 CPU Time for LMOs:                  0.04 sec. Elapsed time:     0.05 sec. Memory usage:     0.19 MW (max).
 CPU Time for PAOs:                  0.00 sec. Elapsed time:     0.00 sec. Memory usage:     0.24 MW (max).

 Distance criteria for pair classes:       RCLOSE= 0.0  RWEAK= 0.0  RDIST= 0.0  RVDIST=-1.0
 Connectivity criteria for pair classes:   ICLOSE=   0  IWEAK=   0  IDIST=   0  IVDIST=  -1

 Augmenting orbital domains by 3 shell(s) of neighboring atoms.  Minimum radius:     7.00
 Augmenting DF domains by 3 shell(s) of neighboring atoms.  Minimum radius:          7.00

 Generating LMO domains. Method=COEFF  Threshold=1.00D-06

 Fitting truncated LMOs to exact LMOs

 Minimum LMO domain size:                215
 Maximum LMO domain size:                215
 Average LMO domain size:              215.0   (sparsity   0.00 %)

 CPU time for Fitlmo:                   0.00 sec.

 PAO orbital domain sizes:   151 (min),  215 (max),  197.8 (average)
 DF  orbital domain sizes:   452 (min),  642 (max),  593.7 (average)

 CPU Time for Domains:               0.00 sec. Elapsed time:     0.01 sec. Memory usage:     0.09 MW (max).

 Number of residual matrices on current processor:       18
 Number of amplitude matrices on current processor:     171

 Fitting basis AUG-CC-PVDZ-MP2F loaded

 Threshold for block screening:     1.00D-05
 Threshold for integral screening:  1.00D-10

 CPU time for create_blocked_AO basis:                 0.01 sec, 215 functions, 13 blocks.
 CPU time for create_blocked_DF basis:                 0.02 sec, 642 functions, 26 blocks.

 Fitting basis center dimensions: min=   23, max=   72, average= 49.38
 Fitting basis block dimensions:  min=   1, max=  36, average= 24.69

 CPU time for project LMOs:                                    0.00 sec.
 CPU time for project PAOs:                                    0.00 sec.

 Screening PAOs with threshold      1.00D-06

 Minimum PAO vector length:              215
 Maximum PAO vector length:              215
 Average PAO vector length:            215.0  (sparsity  0.00 %)

 CPU time for cut/fit of PAO vectors:                          0.00 sec.

 CPU Time for Block_basis:           0.04 sec. Elapsed time:     0.03 sec. Memory usage:     0.12 MW (max).
 CPU Time for Orbitals(tot):         0.08 sec. Elapsed time:     0.10 sec. Memory usage:     0.12 MW (max).
 CPU Time for PAO integrals:         1.02 sec. Elapsed time:     1.07 sec. Memory usage:     1.71 MW (max).
 CPU Time for PAO integrals:         0.00 sec. Elapsed time:     0.00 sec. Memory usage:     0.83 MW (max).
 CPU Time for PAO amplitudes:        0.17 sec. Elapsed time:     0.17 sec. Memory usage:     1.63 MW (max).

 Generating OSVs using PAO(PERT) amplitudes, throsv= 1.0D-10

 Minimum OSV orbital domain size:         56
 Maximum OSV orbital domain size:        141
 Average OSV orbital domain size:       98.2

 CPU Time for OSV_generate:          0.07 sec. Elapsed time:     0.07 sec. Memory usage:     1.33 MW (max).

 Computing distant pair energies using multipole approximation up to order   3

 CPU time for computing multipole integrals (PAO/LMO):         0.17 sec
 CPU time for transforming integrals to OSV domains:           0.00 sec
 CPU time for distant pair energies:                           0.27 sec

 Distant pairs selected using the multipole order 3,  thrdist=1.0D-06  thrvdist=1.0D-07

 Semi-canonical distant pair energies, multipole-orders 1-3    0.00000000  0.00000000  0.00000000


 CPU Time for osv_mltp:              0.26 sec. Elapsed time:     0.27 sec. Memory usage:     0.48 MW (max).

 Number of strong pairs:                 171
 Number of close pairs:                    0
 Number of weak pairs:                     0
 Number of distant pairs:                  0  (treated by iterative multipole approximation, thrdist= 1.0D-06)
 Number of very distant pairs:             0  (treated by non-iterative multipole approximation, thrvdist= 1.0D-07)
 Total number of pairs in LMP2:          171

 Number of pairs per orbital (min, max, average):

 Strong pairs:              18    18    18.0
 Close pairs:                0     0     0.0
 Weak  pairs:                0     0     0.0
 Distant  pairs:             0     0     0.0
 Very distant pairs:         0     0     0.0

 CPU Time for Distribute_pairs:      0.00 sec. Elapsed time:     0.01 sec. Memory usage:     0.48 MW (max).

 Number of residual matrices on current processor:      171
 Number of amplitude matrices on current processor:     171

 Minimum OSV pair domain size:            56
 Maximum OSV pair domain size:           263
 Average OSV pair domain size:         186.1
 Total number of OSVs:                  1768
 Total number of OSV amplitudes:     6215846

 CPU Time for OSV_pairdom:           1.57 sec. Elapsed time:     1.59 sec. Memory usage:     6.13 MW (max).
 CPU Time for OSV integrals:         2.51 sec. Elapsed time:     2.62 sec. Memory usage:    12.41 MW (max).
 CPU Time for OSV_smatrix:           0.08 sec. Elapsed time:     0.08 sec. Memory usage:    11.28 MW (max).

 nosvmx= 263  nosvt= 1768  lens=         0  lenr=   5140822  lent=   6215846  leng=   6215846  lenw=   5659255  lenosv=     69169

 Generating PNOs using OSV(SC) amplitudes, THRPNO_EN=0.9970,  THRPNO_OCC=1.0D-08,  KEEP_DIAG=T  THRPNO_DIAG=0.0D+00

 Generating PNOs for LCCSD with thresholds: THREN_CC:  0.99700, THRPNO_CC:1.0D-08

                                                PNO-LMP2     PNO_LCCSD
 Minimum PNO domain size:                            33            33
 Maximum PNO domain size:                            85            85
 Average PNO domain size:                          56.3          56.3
 Total number of PNOs:                             9622          9622
 Total number of PNO amplitudes:                 560592
 Local number of PNO amplitudes:                 560592
 Length of local PNO residual:                   560592
 Length of local W-matrix:                      1840445

 Semi-canonical OSV correlation energy:     -1.01380323
 Semi-canonical PNO correlation energies:   -1.01369732   -1.01369732

 Semi-canonical domain correction:          -0.00010591   -0.00010591

 CPU Time for PNO_generate:          0.86 sec. Elapsed time:     0.90 sec. Memory usage:    11.91 MW (max).

 Local length of PNO overlap matrix for PNO-LMP2:    8886752  Number of blocks:    2754  number of pairs   171

 GA space for pno_smat:              8.89 MW (tot),              8.89 MW (min),              8.89 MW (max), using processor specific storage

 CPU Time for READ_OSV_SBUF:         0.00 sec. Elapsed time:     0.00 sec. Memory usage:     3.35 MW (max).
 CPU Time for PNO_SMAT:              0.48 sec. Elapsed time:     0.51 sec. Memory usage:     3.34 MW (max).

 Denominator shift:          0.2000

 ITER.      SQ.NORM     CORR.ENERGY   TOTAL ENERGY   ENERGY CHANGE     VAR    DIIS
   1      0.38059994    -1.03796529  -306.12038832    -1.03796529  0.35D-02   1  1
   2      0.40336220    -1.04995222  -306.13237525    -0.01198693  0.17D-03   2  2
   3      0.41657252    -1.05051812  -306.13294116    -0.00056591  0.59D-05   3  3
   4      0.41806565    -1.05053474  -306.13295777    -0.00001661  0.28D-06   4  4
   5      0.41807531    -1.05053558  -306.13295861    -0.00000085  0.11D-07   5  5
   6      0.41804389    -1.05053561  -306.13295865    -0.00000003  0.41D-09   6  6

                                            PNO-LMP2        PNO-LMP2_CORR
  PNO-LMP2 correlation energy          -1.050535613858    -1.050641522142
 !PNO-LMP2 total energy              -306.132958645604  -306.133064553888

 CPU Time for PNO-LMP2:              0.85 sec. Elapsed time:     0.97 sec. Memory usage:     3.69 MW (max).

 PNO-LMP2 energy contributions
 =============================

                            OSV-LMP2(SC)     PNO-LMP2    PNO-SCS-LMP2   %(PNO/OSV)  AVDOM(PNO)
 Strong pair energy:        -1.01380323    -1.05053561    -1.02496574     103.62       56.3
 Close pair energy:          0.00000000     0.00000000     0.00000000       0.00        0.0
 Weak pair energy :          0.00000000     0.00000000     0.00000000       0.00        0.0
 Distant pair energy:        0.00000000     0.00000000     0.00000000       0.00        0.0
 Total correl. energy:      -1.01380323    -1.05053561    -1.02496574     103.62       56.3

 GA space for pno_smat:              8.89 MW (tot),              8.89 MW (min),              8.89 MW (max), using processor specific storage

 CPU Time for READ_OSV_SBUF:         0.00 sec. Elapsed time:     0.03 sec. Memory usage:     3.42 MW (max).
 CPU Time for PNO_SMAT:              0.47 sec. Elapsed time:     0.53 sec. Memory usage:     3.41 MW (max).

 Denominator shift:          0.2000

 ITER.      SQ.NORM     CORR.ENERGY   TOTAL ENERGY   ENERGY CHANGE     VAR    DIIS
   1      0.41804340    -1.05053562  -306.13295865    -1.05053562  0.40D-10   1  1
   2      0.41804290    -1.05053562  -306.13295865    -0.00000000  0.43D-11   2  2

 LMP2 results with LCCSD domains:
 ================================
                                            PNO-LMP2        PNO-LMP2_CORR
  PNO-LMP2 correlation energy          -1.050535615139    -1.050641522142
  PNO-LMP2 total energy              -306.132958646885  -306.133064553888

  PNO-LMP2 domain correction           -0.000105907003

 CPU Time for PNO-LMP2(tot):         8.62 sec. Elapsed time:     9.14 sec. Memory usage:    15.51 MW (max).

 Energy thresholds for pair classes:  THRCLOSE=1.00D-04  THRWEAK= 1.00D-05  THRDISTC=0.00D+00

 Strong and close pairs optimized in LCCSD, close pair residuals are approximated (keepcls=1).

 Number of optimized pairs:         171
 Number of strong pairs:            154
 Number of close pairs:              17
 Number of weak pairs:                0
 Total number of pairs:             171

 Length of pair-specific S-blocks:   180.30 MW,  length of unique S-blocks    46.01 MW

 CPU Time for LCC_opdom:             0.06 sec. Elapsed time:     0.06 sec. Memory usage:     0.39 MW (max).
 CPU Time for LCC_float:             0.01 sec. Elapsed time:     0.01 sec. Memory usage:     0.12 MW (max).

 CPU Time for LCC_opdom:             0.04 sec. Elapsed time:     0.04 sec. Memory usage:     0.39 MW (max).
 CPU Time for LCC_load:              0.01 sec. Elapsed time:     0.01 sec. Memory usage:     3.15 MW (max).

 Estimated GA usage of PNO-LCCSD integrals:                      0.00 MW
 Maximum GA usage after allocating GAs for CCSD integrals:       0.00 MW

 CPU Time for CCSD integrals:      122.89 sec. Elapsed time:   131.89 sec. Memory usage:    23.20 MW (max).

 GA space for pno_smat:             46.01 MW (tot),             46.01 MW (min),             46.01 MW (max), using node specific storage
 CPU Time for OSV_SMAT_LCC:          0.04 sec. Elapsed time:     0.05 sec. Memory usage:    25.11 MW (max).
 CPU Time for READ_OSV_SBUF:         0.00 sec. Elapsed time:     0.00 sec. Memory usage:    25.11 MW (max).
 CPU Time for PNO_SMAT_LCC:          2.37 sec. Elapsed time:     2.57 sec. Memory usage:    23.48 MW (max).

 Current GA usage:                   0.00 MW.  Maximum GA usage up to this point:            0.00 MW

 Solving PNO-LCCSD equations

 K-Operators in non-linear terms are projected

 Close pairs are approximated (keepcls=1, max_ijkl=0, skip_ijkl=0, maxik=0)

 Weak pairs pairs are treated by CEPA(2)

 Denominator shifts:     0.15 (singles),  0.20 (doubles)

 ITER.      SQ.NORM     CORR.ENERGY   TOTAL ENERGY   ENERGY CHANGE     VAR        VART1     DIIS     TIME
    1     0.42847337    -1.04731342  -306.12973645     0.00322219    0.65D-02    0.10D-01   1  1    22.30
    2     0.43682536    -1.08799986  -306.17042289    -0.04068644    0.15D-02    0.50D-03   2  2    44.52
    3     0.49191454    -1.09271649  -306.17513952    -0.00471663    0.18D-03    0.50D-03   3  3    67.07
    4     0.51135104    -1.09463062  -306.17705365    -0.00191413    0.48D-04    0.17D-03   4  4    89.35
    5     0.52117925    -1.09576785  -306.17819088    -0.00113723    0.16D-04    0.53D-04   5  5   111.98
    6     0.52852479    -1.09625334  -306.17867637    -0.00048550    0.41D-05    0.15D-04   6  6   134.53
    7     0.53262076    -1.09648549  -306.17890852    -0.00023214    0.12D-05    0.29D-05   7  7   157.19
    8     0.53416239    -1.09659550  -306.17901854    -0.00011002    0.26D-06    0.65D-06   8  8   179.92
    9     0.53445463    -1.09661676  -306.17903979    -0.00002125    0.55D-07    0.20D-06   1  8   202.37
   10     0.53457992    -1.09661776  -306.17904079    -0.00000100    0.16D-07    0.61D-07   2  8   224.79
   11     0.53461262    -1.09662298  -306.17904601    -0.00000522    0.41D-08    0.18D-07   3  8   247.33
   12     0.53462517    -1.09662011  -306.17904314     0.00000287    0.12D-08    0.44D-08   4  8   269.82
   13     0.53463625    -1.09662062  -306.17904366    -0.00000052    0.30D-09    0.97D-09   5  8   292.16

 Convergence reached

  T1 diagnostic   0.02560
  D1 diagnostic   0.11895
   
  Reference energy                   -305.082423031746

  Correlation contributions without domain correction:

  PNO-LCCSD singles energy             -0.000148692506
  PNO-LCCSD strong pair energy         -1.095659011444
  PNO-LCCSD close pair energy          -0.000812920968
  PNO-CEPA(2) weak pair energy          0.000000000000
  PNO-SCS-LMP2 distant pair energy      0.000000000000

  Results including domain correction:

  PNO-LMP2 correction                  -0.000105907003
  PNO-LCCSD correlation energy         -1.096726531921
 !PNO-LCCSD total energy             -306.179149563667

 Maximum stack memory usage in PNO-LCCSD iterations: 26.99 MW
 Maximum GA memory usage up to this point: .00 MW
 Maximum local disk usage in MB: 4808.22 (current)   4808.22 (maximum)   4808.22 (average)
 Maximum local disk usage per node: 4808.22 MB

 CPU Time for PNO_LCCSD(it):       248.18 sec. Elapsed time:   292.18 sec. Memory usage:    23.81 MW (max).

 Selecting triples using THRCLOSE_T_PRE = 0.100E-03, THRWEAK_T_PRE = 0.000E+00, TRIPTYP = 2
 Selected 1122 of 1122 triples

 DF domains for (T) with RDFDOM_T: .0, IDFDOM_T: 0

 Options for (T) corrections
   Post (T0) method -  (T1): F, iterative (T): T
   Iterative (T) - THRCONV_TRIP: 0.100E-05, SKIP_TIJKW: F, THRFINT_EN: 0.100E-03
   Triple-specific virtuals - TNO
   PNO thresholds - (T0): 0.100E-09, post (T0): 0.100E-06
   LMO domains - MODOM_T0: 2
   Technical settings - TITER_DYNAMIC: F, USE_SOSV: F


 Triple PAO domain sizes: 215 (maximum), 212.4 (average) 212.5 (average, cubed)
 Triple OSV domain sizes: 383 (maximum), 267.9 (average) 278.4 (average, cubed)
 Triple PNO domain sizes: 161 (maximum), 115.5 (average) 118.5 (average, cubed)
 Triple PNO (iterations) domain sizes: 71 (maximum), 48.0 (average) 49.6 (average, cubed)

 Estimated GA usage of (T) amplitudes 148.42 MW


                                         Large domain       Small domain       Domain corr.
  Triples [T0] contribution            -0.057677573173    -0.056906320424    -0.000771252749
  Triples (T0) contribution            -0.054070466207    -0.053312910932    -0.000757555275

  PNO-LCCSD(T0) corr. energy           -1.150796998127
  PNO-LCCSD(T0) total energy         -306.233220029873


 Screening triples with THRTRIP_IT = 0.100E-06
 1100 out of 1122 ( 98.04%) triples survived for the iterations

 ITER.   [T] ENERGY    ENERGY CHANGE    TIME
    0    -0.05690506     0.00000000     0.00
    1    -0.05907285    -0.00216780    89.48
    2    -0.05949019    -0.00041734   150.97
    3    -0.05952035    -0.00003016   210.66
    4    -0.05952931    -0.00000895   272.52
    5    -0.05952982    -0.00000051   334.47

 Convergence reached


                                         Small domain        Corrected
  Triples [T] contribution             -0.059531080873    -0.060302333622
  Triples (T) contribution             -0.055628487681    -0.056386042956

  PNO-LCCSD(T) corr. energy            -1.153112574877
 !PNO-LCCSD(T) total energy          -306.235535606623


 GA_Put processed 947.48 MW globally, average elapsed time per process: 3.22 sec
 GA_Get processed 87258.84 MW globally, average elapsed time per process: 93.80 sec

 REMARK: Memory usage printed may not be correct.
 CPU Time for PNO-LCCSD(T)(tot):  1181.12 sec. Elapsed time:  1331.32 sec. Memory usage:    25.11 MW (max).

 Direct file usage                   5.23 MB (local),            5.23 MB (max),              5.23 MB (tot)

 Max. memory usage (overall):       25.11 MW (local),           25.11 MW (max),             25.11 MW (tot)
 Max. GA usage (overall):            0.00 MW (local),            0.00 MW (max),              0.00 MW (tot)
 Max. memory+GA usage:              25.11 MW (local),           25.11 MW (max),             25.11 MW (tot)


 **********************************************************************************************************************************
 DATASETS  * FILE   NREC   LENGTH (MB)   RECORD NAMES
              1      19       31.94       500      610      700      900      950      970     1000      129      960     1100   
                                          VAR    BASINP    GEOM    SYMINP    ZMAT    AOBASIS   BASIS     P2S    ABASIS      S 
                                         1400     1410     1200     1210     1080     1600     1650     1700      960(1)
                                           T        V       H0       H01     AOSYM     SMH    MOLCAS    OPER    ABASIS    

              2       4        4.10       700     1000      520     2100   
                                         GEOM     BASIS   MCVARS     RHF  

 PROGRAMS   *        TOTAL  LCCSD(T)     DF-HF       INT
 CPU TIMES  *      1209.04   1189.89     18.70      0.34
 REAL TIME  *      1362.63 SEC
 DISK USED  *       113.21 MB
 **********************************************************************************************************************************

 PNO-LCCSD(T)/aug-cc-pVDZ energy=   -306.235535606623

    PNO-LCCSD(T)           DF-HF
   -306.23553561   -305.08242303
 **********************************************************************************************************************************
 Molpro calculation terminated
