
 Primary working directories    : /var/tmp/pbs.368297.bp1/molpro.5WFk5FHXtQ
 Secondary working directories  : /var/tmp/pbs.368297.bp1/molpro.5WFk5FHXtQ
 Wavefunction directory         : /home/lb17101/molpro_test/inp/lowmem/
 Main file repository           : /home/lb17101/molpro_test/inp/lowmem/

 id        : uob

 Nodes                         nprocs
 bp1-01-10-01.data.bp.acrc.priv    1

 Using customized tuning parameters: mindgm=1; mindgv=20; mindgc=4; mindgr=1; noblas=0; minvec=7
 default implementation of scratch files=df  


 Variables initialized (934), CPU time= 0.01 sec
 geomtyp=xyz
 nosym
 noorient
 geometry={
  O       0.316292055736      -0.124960524545       1.757968661833
  C       0.232577462016      -0.538661708712       0.462666966351
  C      -0.723794322699      -1.023964868199      -0.618813666053
  C      -1.478688923176       0.283342853574      -0.521850051125
  C      -1.745214902596       1.382233282003      -0.506642760834
  C       1.399795339529       0.242865209382      -0.040514005284
  C       2.372992364427       0.952133049175      -0.780637927547
  H       0.353265030169       1.039914366684       1.639163797468
  H       1.076419883419      -1.574154198331       0.127187780010
  H      -1.109615428460      -2.174432056438      -0.119839084829
  H       0.079168877958      -1.061355668680      -1.642309835516
  H      -2.077630208711       2.243686811813      -1.241316814978
  H       3.202052423072       0.303222578519      -0.052430641190
 }
 basis=avtz
 df-hf
 pno-lccsd(t)
 Commands  initialized (763), CPU time= 0.02 sec, 617 directives.
 Default parameters read. Elapsed time=12.20 sec

 Checking input...
 Passed
1


                                         ***  PROGRAM SYSTEM MOLPRO  ***
                                       Copyright, TTI GmbH Stuttgart, 2015
                                    Version 2019.2 linked Oct 25 2019 22:50:27


 **********************************************************************************************************************************
 LABEL *                                                                                 
  64 bit serial version                                                                  DATE: 22-Sep-20          TIME: 21:45:07  
 **********************************************************************************************************************************

 SHA1:             8dbd9ae1082e4ce945b0f27595c9eb2d4aa09004
 **********************************************************************************************************************************
 SETTING GEOMTYP        =    XYZ

 Variable memory set to 1024000000 words,  buffer space 

 ZSYMEL=NOSYM

 SETTING BASIS          =    AVTZ


 Recomputing integrals since basis changed


 Using spherical harmonics

 Library entry O      S aug-cc-pVTZ          selected for orbital group  1
 Library entry O      P aug-cc-pVTZ          selected for orbital group  1
 Library entry O      D aug-cc-pVTZ          selected for orbital group  1
 Library entry O      F aug-cc-pVTZ          selected for orbital group  1
 Library entry C      S aug-cc-pVTZ          selected for orbital group  2
 Library entry C      P aug-cc-pVTZ          selected for orbital group  2
 Library entry C      D aug-cc-pVTZ          selected for orbital group  2
 Library entry C      F aug-cc-pVTZ          selected for orbital group  2
 Library entry H      S aug-cc-pVTZ          selected for orbital group  3
 Library entry H      P aug-cc-pVTZ          selected for orbital group  3
 Library entry H      D aug-cc-pVTZ          selected for orbital group  3


 PROGRAM * SEWARD (Integral evaluation for generally contracted gaussian basis sets)     Author: Roland Lindh, 1990

 Geometry written to block  1 of record 700


 Point group  C1  



 ATOMIC COORDINATES

 NR  ATOM    CHARGE       X              Y              Z

   1  O       8.00    0.597705361   -0.236141168    3.322079306
   2  C       6.00    0.439507706   -1.017923103    0.874313853
   3  C       6.00   -1.367773040   -1.935013162   -1.169388351
   4  C       6.00   -2.794317088    0.535440393   -0.986153675
   5  C       6.00   -3.297978194    2.612042343   -0.957416061
   6  C       6.00    2.645229822    0.458948731   -0.076560374
   7  C       6.00    4.484305664    1.799270697   -1.475191886
   8  H       1.00    0.667574156    1.965153346    3.097570651
   9  H       1.00    2.034138775   -2.974720313    0.240350071
  10  H       1.00   -2.096869263   -4.109081063   -0.226463049
  11  H       1.00    0.149607497   -2.005671535   -3.103515801
  12  H       1.00   -3.926152083    4.239953584   -2.345748814
  13  H       1.00    6.051002116    0.573007628   -0.099079552

 Bond lengths in Bohr (Angstrom)

 1-2  2.574444640  1-8  2.213816461  2-3  2.878200231  2-6  2.819667049  2-9  2.602655114
     ( 1.362337434)     ( 1.171501220)     ( 1.523077971)     ( 1.492103544)     ( 1.377265774)

  3- 4  2.858626179   3-10  2.479366989   3-11  2.459326187   4- 5  2.137001643   5-12  2.229835257
       ( 1.512719829)       ( 1.312024508)       ( 1.301419372)       ( 1.130852569)       ( 1.179978002)

  6- 7  2.671110823   7-13  2.419079172
       ( 1.413490976)       ( 1.280121569)

 Bond angles

  1-2-3  144.14163529   1-2-6   96.51775116   1-2-9  114.97743941   2-1-8  101.97409925

  2- 3- 4   89.56866075   2- 3-10  101.18658131   2- 3-11  100.37905865   2- 6- 7  167.95755643

  3- 2- 6  114.74859256   3- 2- 9   88.40698999   3- 4- 5  163.38762993   4- 3-10  125.92102315

  4- 3-11  112.52814726   4- 5-12  140.12525814   6- 2- 9   80.34978186   6- 7-13   83.89688914

 10- 3-11  117.08649087

 NUCLEAR CHARGE:                   50
 NUMBER OF PRIMITIVE AOS:         631
 NUMBER OF SYMMETRY AOS:          556
 NUMBER OF CONTRACTIONS:          460   (  460A   )
 NUMBER OF CORE ORBITALS:           7   (    7A   )
 NUMBER OF VALENCE ORBITALS:       34   (   34A   )


 NUCLEAR REPULSION ENERGY  253.91690295


 Eigenvalues of metric

         1 0.629E-05 0.899E-05 0.106E-04 0.122E-04 0.151E-04 0.179E-04 0.264E-04 0.310E-04


 OPERATOR DM      FOR CENTER  0  COORDINATES:    0.000000    0.000000    0.000000


 **********************************************************************************************************************************
 DATASETS  * FILE   NREC   LENGTH (MB)   RECORD NAMES
              1      18       37.93       500      610      700      900      950      970     1000      129      960     1100   
                                          VAR    BASINP    GEOM    SYMINP    ZMAT    AOBASIS   BASIS     P2S    ABASIS      S 
                                         1400     1410     1200     1210     1080     1600     1650     1700   
                                           T        V       H0       H01     AOSYM     SMH    MOLCAS    OPER   

 PROGRAMS   *        TOTAL       INT
 CPU TIMES  *         1.01      0.74
 REAL TIME  *        23.65 SEC
 DISK USED  *        38.54 MB
 **********************************************************************************************************************************


 PROGRAM * RHF-SCF (CLOSED SHELL)       Authors: W. Meyer, H.-J. Werner


 NUMBER OF ELECTRONS:      25+   25-    SPACE SYMMETRY=1    SPIN SYMMETRY: Singlet 
 CONVERGENCE THRESHOLDS:    1.00E-05 (Density)    1.00E-07 (Energy)
 INTEGRAL THRESHOLDS:       1.00E-11 (Initial)    1.00E-11 (Final)
 MAX. NUMBER OF ITERATIONS:       60
 INTERPOLATION TYPE:            DIIS
 INTERPOLATION STEPS:              2 (START)      1 (STEP)
 LEVEL SHIFTS:                  0.00 (CLOSED)  0.00 (OPEN) 




 Basis set AUG-CC-PVTZ/JKFIT generated.  Number of basis functions:   1004 

 Orbital guess generated from atomic densities. Full valence occupancy:   41
 Using density fitting in orbital guess

 Coulomb and exchange fitting
 Thresholds for fitting:       THRAO_COUL= 1.0D-14    THRAO_EXCH= 1.0D-12    THRMO= 1.0D-11    THRPROD= 1.0D-11    THRASM= 1.0D-11
                               THR2HLF=    1.0D-11

 Molecular orbital dump at record        2100.2

 Initial occupancy:  25

 ITERATION   DDIFF            GRAD            ENERGY        2-EL.EN.            DIPOLE MOMENTS         DIIS   CPU(IT)  CPU(TOT)  ORB.
    1      0.000D+00      0.000D+00      -305.00562891    715.015864   -1.06432   -1.91070    0.47803    0      3.8      8.7     start
    2      0.000D+00      0.318D-02      -305.09006839    715.529251   -0.50325   -0.07668   -0.49858    1      4.2     12.9     diag
    3      0.487D-02      0.219D-02      -305.14016135    713.513543   -0.94718   -0.94729    0.02802    2      4.0     16.9     diag
    4      0.198D-02      0.605D-03      -305.14619268    714.894327   -0.79327   -0.78949   -0.15997    3      4.0     20.8     diag
    5      0.670D-03      0.246D-03      -305.14773643    714.405443   -0.83503   -0.79347   -0.11872    4      4.0     24.9     diag
    6      0.318D-03      0.974D-04      -305.14823241    714.479998   -0.82474   -0.78182   -0.15141    5      4.1     29.0     diag
    7      0.170D-03      0.548D-04      -305.14842656    714.496132   -0.81811   -0.78277   -0.14745    6      4.0     33.0     diag
    8      0.111D-03      0.286D-04      -305.14848942    714.495995   -0.81328   -0.77991   -0.15406    7      4.0     37.0     diag
    9      0.755D-04      0.117D-04      -305.14849859    714.495264   -0.81111   -0.78043   -0.15411    8      3.9     40.9     diag
   10      0.330D-04      0.399D-05      -305.14849939    714.495250   -0.81043   -0.78118   -0.15441    9      4.0     44.9     orth
   11      0.870D-05      0.192D-05      -305.14849958    714.496268   -0.81031   -0.78063   -0.15439    9      4.0     48.9     diag
   12      0.395D-05      0.994D-06      -305.14849966    714.495524   -0.81036   -0.78081   -0.15450    9      4.0     52.9     diag
   13      0.231D-05      0.559D-06      -305.14849968    714.495945   -0.81038   -0.78080   -0.15448    0      4.1     57.0     orth

 Final occupancy:  25

 !RHF STATE  1.1 Energy              -305.148499675571
 Nuclear energy                       253.91690295
 One-electron energy                 -916.31337510
 Two-electron energy                  357.24797247
 Virial quotient                       -1.00424613
 !RHF STATE  1.1 Dipole moment         -0.81038331    -0.78080401    -0.15447885
 Dipole moment /Debye                  -2.05965402    -1.98447585    -0.39262036

 Orbital energies:

         1.1          2.1          3.1          4.1          5.1          6.1          7.1          8.1          9.1         10.1
    -20.619470   -11.375610   -11.353357   -11.310698   -11.268758   -11.250809   -11.229008    -1.409030    -1.132169    -1.049890

        11.1         12.1         13.1         14.1         15.1         16.1         17.1         18.1         19.1         20.1
     -0.989780    -0.871489    -0.736018    -0.712592    -0.654544    -0.650588    -0.616328    -0.579536    -0.543562    -0.498078

        21.1         22.1         23.1         24.1         25.1         26.1         27.1
     -0.454120    -0.431456    -0.422616    -0.398369    -0.350839     0.021137     0.031665


 HOMO     25.1    -0.350839 =      -9.5468eV
 LUMO     26.1     0.021137 =       0.5752eV
 LUMO-HOMO         0.371976 =      10.1220eV


 **********************************************************************************************************************************
 DATASETS  * FILE   NREC   LENGTH (MB)   RECORD NAMES
              1      18       37.93       500      610      700      900      950      970     1000      129      960     1100   
                                          VAR    BASINP    GEOM    SYMINP    ZMAT    AOBASIS   BASIS     P2S    ABASIS      S 
                                         1400     1410     1200     1210     1080     1600     1650     1700   
                                           T        V       H0       H01     AOSYM     SMH    MOLCAS    OPER   

              2       4        8.12       700     1000      520     2100   
                                         GEOM     BASIS   MCVARS     RHF  

 PROGRAMS   *        TOTAL     DF-HF       INT
 CPU TIMES  *        58.11     57.10      0.74
 REAL TIME  *       100.72 SEC
 DISK USED  *       200.10 MB
 **********************************************************************************************************************************


 World communicator: rank 0, size 1
 Shared-memory communicator: rank 0, size 1
 Current node: rank 0, 1 node(s) in total

 Restoring occupations from record    2100.2

 Program * PNO-LCCSD(T)   Authors:   H.-J. Werner (2012), M. Schwilk, Q. Ma (2016)

 Number of core orbitals:           7
 Number of closed-shell orbitals:  18
 Number of open-shell orbitals:     0
 Number of valence orbitals:       18
 Number of external orbitals:     435

 Basis set AUG-CC-PVTZ/MP2FIT generated. Number of basis functions:   1018 

 iclose= 0  iweak= 0  rclose= 0.00  rweak= 0.00  thrclos= 1.0D-04  thrweak= 1.0D-05  open-shell=F

 Use_GA=T  Use_PAO=T  PAO_pairdom=F  PAO_trans=T  LOCFIT= 1  LOCRI=F  EIJDIP=2  PROJECT_K=T

 Threshold for small PAO norm:    0.00D+00
 Threshold for redundancy check:  1.00D-06

 OPTIONS FOR CCSD:   method= LCCSD     icepa= -1  icepac=-1  icepaw= 2  keepcls=1  maxcls=1  maxclt=2  maxwkt=2  do_mp2w=F
                     project_k=T    project_j=ALL    idexp4_close=0

 OPTIONS FOR SINGLES IN CCSD:   isexp4=  1  isexp5= 0  isexp6= 0  project_je=T  project_s=WEAK
                                includeGE= 1  includeKEKJ= 1  includeJEKJ= 0  includeJ= 2  undress=T  project_ke=2

 Molecular orbitals read from record     2100.2  Type=RHF/CANONICAL (state 1.1)
 Orbital energies read from record       2100.2  Type=RHF/CANONICAL (state 1.1)
 Fock matrix read from record            2100.2  Type=RHF/TOTAL (state 1.1)

  Reference energy                   -305.148499675570


 Computing intrinsic bond orbitals
 =================================

 Basis set MINAO-AUTO-PP generated.      Number of basis functions:   41 

 Polarized AO type:                A = (O Ot + (1-O)(1-Ot)) P12
 Orthogonalization method:         Symmetric (Loewdin)
 Localization functional:          L = sum[A,i] <i|n_A|i>^4 -> max

 Localization group 1:  18 orbitals, occupancy  2.000
 Iterative localization: IB/PM,    9 iter; Final gradient 0.47E-08

 Summary of localized orbital composition:   [THRPRINT= 0.020]

   ORB  GRP  ORB.ENERGY      CENTERS/CHARGES
     8   1    -1.027949      O  1   1.222   C  2   0.764
     9   1    -1.013251      C  4   1.025   C  5   0.959
    10   1    -0.837086      C  6   1.078   C  2   0.910
    11   1    -0.831204      O  1   1.372   H  8   0.592   C  2   0.021
    12   1    -0.825337      C  6   1.098   C  7   0.898
    13   1    -0.818283      O  1   1.986
    14   1    -0.816221      C  2   1.041   C  3   0.909   C  4   0.022   (other: 0.027)
    15   1    -0.798913      C  4   1.049   C  3   0.934
    16   1    -0.673339      C  5   1.216   H 12   0.780
    17   1    -0.657437      C  3   1.139   H 11   0.820   (other: 0.041)
    18   1    -0.645943      C  3   1.127   H 10   0.851   (other: 0.022)
    19   1    -0.581370      O  1   1.925   C  2   0.029   (other: 0.045)
    20   1    -0.571786      C  2   0.953   H  9   0.894   C  6   0.100   (other: 0.053)
    21   1    -0.554946      C  7   0.920   H 13   0.802   C  6   0.270
    22   1    -0.489689      C  7   1.817   C  6   0.133   H 13   0.036
    23   1    -0.464662      C  4   1.047   C  5   0.933
    24   1    -0.461593      C  5   1.121   C  4   0.853   (other: 0.026)
    25   1    -0.431998      C  6   1.271   C  7   0.688   (other: 0.041)

 CPU Time for LMOs:                  0.17 sec. Elapsed time:     4.50 sec. Memory usage:     0.85 MW (max).
 CPU Time for PAOs:                  0.02 sec. Elapsed time:     0.14 sec. Memory usage:     1.07 MW (max).

 Distance criteria for pair classes:       RCLOSE= 0.0  RWEAK= 0.0  RDIST= 0.0  RVDIST=-1.0
 Connectivity criteria for pair classes:   ICLOSE=   0  IWEAK=   0  IDIST=   0  IVDIST=  -1

 Augmenting orbital domains by 2 shell(s) of neighboring atoms.  Minimum radius:     5.00
 Augmenting DF domains by 2 shell(s) of neighboring atoms.  Minimum radius:          5.00

 Generating LMO domains. Method=COEFF  Threshold=1.00D-06

 Fitting truncated LMOs to exact LMOs

 Minimum LMO domain size:                460
 Maximum LMO domain size:                460
 Average LMO domain size:              460.0   (sparsity   0.00 %)

 CPU time for Fitlmo:                   0.00 sec.

 PAO orbital domain sizes:   161 (min),  414 (max),  296.4 (average)
 DF  orbital domain sizes:   364 (min),  926 (max),  661.3 (average)

 CPU Time for Domains:               0.00 sec. Elapsed time:     0.13 sec. Memory usage:     0.43 MW (max).

 Number of residual matrices on current processor:       18
 Number of amplitude matrices on current processor:     171

 Fitting basis AUG-CC-PVTZ-MP2F loaded

 Threshold for block screening:     1.00D-05
 Threshold for integral screening:  1.00D-10

 CPU time for create_blocked_AO basis:                 0.04 sec, 460 functions, 20 blocks.
 CPU time for create_blocked_DF basis:                 0.07 sec, 1018 functions, 34 blocks.

 Fitting basis center dimensions: min=   46, max=  106, average= 78.31
 Fitting basis block dimensions:  min=   1, max=  36, average= 29.94

 CPU time for project LMOs:                                    0.00 sec.
 CPU time for project PAOs:                                    0.00 sec.

 Screening PAOs with threshold      1.00D-06

 Minimum PAO vector length:              460
 Maximum PAO vector length:              460
 Average PAO vector length:            460.0  (sparsity  0.00 %)

 CPU time for cut/fit of PAO vectors:                          0.00 sec.

 CPU Time for Block_basis:           0.12 sec. Elapsed time:     0.35 sec. Memory usage:     0.46 MW (max).
 CPU Time for Orbitals(tot):         0.31 sec. Elapsed time:     5.25 sec. Memory usage:     0.46 MW (max).
 CPU Time for PAO integrals:         4.38 sec. Elapsed time:     4.66 sec. Memory usage:     4.31 MW (max).
 CPU Time for PAO integrals:         0.00 sec. Elapsed time:     0.11 sec. Memory usage:     2.15 MW (max).
 CPU Time for PAO amplitudes:        0.60 sec. Elapsed time:     0.76 sec. Memory usage:     4.31 MW (max).

 Generating OSVs using PAO(PERT) amplitudes, throsv= 1.0D-09

 Minimum OSV orbital domain size:         82
 Maximum OSV orbital domain size:        169
 Average OSV orbital domain size:      120.8

 CPU Time for OSV_generate:          0.24 sec. Elapsed time:     0.35 sec. Memory usage:     3.32 MW (max).

 Computing distant pair energies using multipole approximation up to order   3

 CPU time for computing multipole integrals (PAO/LMO):         0.50 sec
 CPU time for transforming integrals to OSV domains:           0.10 sec
 CPU time for distant pair energies:                           0.97 sec

 Distant pairs selected using the multipole order 3,  thrdist=1.0D-06  thrvdist=1.0D-07

 Semi-canonical distant pair energies, multipole-orders 1-3    0.00000000  0.00000000  0.00000000


 CPU Time for osv_mltp:              0.71 sec. Elapsed time:     1.08 sec. Memory usage:     1.13 MW (max).

 Number of strong pairs:                 171
 Number of close pairs:                    0
 Number of weak pairs:                     0
 Number of distant pairs:                  0  (treated by iterative multipole approximation, thrdist= 1.0D-06)
 Number of very distant pairs:             0  (treated by non-iterative multipole approximation, thrvdist= 1.0D-07)
 Total number of pairs in LMP2:          171

 Number of pairs per orbital (min, max, average):

 Strong pairs:              18    18    18.0
 Close pairs:                0     0     0.0
 Weak  pairs:                0     0     0.0
 Distant  pairs:             0     0     0.0
 Very distant pairs:         0     0     0.0

 CPU Time for Distribute_pairs:      0.00 sec. Elapsed time:     0.11 sec. Memory usage:     1.13 MW (max).

 Number of residual matrices on current processor:      171
 Number of amplitude matrices on current processor:     171

 Minimum OSV pair domain size:            82
 Maximum OSV pair domain size:           324
 Average OSV pair domain size:         228.8
 Total number of OSVs:                  2174
 Total number of OSV amplitudes:     9340892

 CPU Time for OSV_pairdom:           2.98 sec. Elapsed time:     3.26 sec. Memory usage:    10.48 MW (max).
 CPU Time for OSV integrals:         8.97 sec. Elapsed time:     9.29 sec. Memory usage:    22.99 MW (max).
 CPU Time for OSV_smatrix:           0.15 sec. Elapsed time:     0.18 sec. Memory usage:    19.76 MW (max).

 nosvmx= 324  nosvt= 2174  lens=         0  lenr=   9286988  lent=   9340892  leng=   9340892  lenw=   9352219  lenosv=    104976

 Generating PNOs using OSV(SC) amplitudes, THRPNO_EN=0.9970,  THRPNO_OCC=1.0D-08,  KEEP_DIAG=T  THRPNO_DIAG=0.0D+00

 Generating PNOs for LCCSD with thresholds: THREN_CC:  0.99000, THRPNO_CC:1.0D-07

                                                PNO-LMP2     PNO_LCCSD
 Minimum PNO domain size:                            47            24
 Maximum PNO domain size:                           136            86
 Average PNO domain size:                          91.0          56.3
 Total number of PNOs:                            15553          9619
 Total number of PNO amplitudes:                1457241
 Local number of PNO amplitudes:                1457241
 Length of local PNO residual:                  1457241
 Length of local W-matrix:                      3622854

 Semi-canonical OSV correlation energy:     -1.20657367
 Semi-canonical PNO correlation energies:   -1.20633308   -1.20509073

 Semi-canonical domain correction:          -0.00024059   -0.00148294

 CPU Time for PNO_generate:          2.10 sec. Elapsed time:     2.55 sec. Memory usage:    21.21 MW (max).

 Local length of PNO overlap matrix for PNO-LMP2:   23053323  Number of blocks:    2754  number of pairs   171

 GA space for pno_smat:             23.05 MW (tot),             23.05 MW (min),             23.05 MW (max), using processor specific storage

 CPU Time for READ_OSV_SBUF:         0.01 sec. Elapsed time:     0.33 sec. Memory usage:     8.32 MW (max).
 CPU Time for PNO_SMAT:              1.19 sec. Elapsed time:     1.44 sec. Memory usage:     8.30 MW (max).

 Denominator shift:          0.2000

 ITER.      SQ.NORM     CORR.ENERGY   TOTAL ENERGY   ENERGY CHANGE     VAR    DIIS
   1      0.40758766    -1.23066648  -306.37916615    -1.23066648  0.35D-02   1  1
   2      0.43033500    -1.24288622  -306.39138589    -0.01221974  0.17D-03   2  2
   3      0.44348662    -1.24343855  -306.39193822    -0.00055233  0.57D-05   3  3
   4      0.44502773    -1.24345491  -306.39195458    -0.00001636  0.26D-06   4  4
   5      0.44503715    -1.24345569  -306.39195537    -0.00000078  0.10D-07   5  5
   6      0.44500670    -1.24345572  -306.39195540    -0.00000003  0.35D-09   6  6

                                            PNO-LMP2        PNO-LMP2_CORR
  PNO-LMP2 correlation energy          -1.243455719818    -1.243696312641
 !PNO-LMP2 total energy              -306.391955395388  -306.392195988211

 CPU Time for PNO-LMP2:              3.05 sec. Elapsed time:     4.60 sec. Memory usage:     9.46 MW (max).

 PNO-LMP2 energy contributions
 =============================

                            OSV-LMP2(SC)     PNO-LMP2    PNO-SCS-LMP2   %(PNO/OSV)  AVDOM(PNO)
 Strong pair energy:        -1.20657367    -1.24345572    -1.22485337     103.06       91.0
 Close pair energy:          0.00000000     0.00000000     0.00000000       0.00        0.0
 Weak pair energy :          0.00000000     0.00000000     0.00000000       0.00        0.0
 Distant pair energy:        0.00000000     0.00000000     0.00000000       0.00        0.0
 Total correl. energy:      -1.20657367    -1.24345572    -1.22485337     103.06       91.0

 GA space for pno_smat:              8.69 MW (tot),              8.69 MW (min),              8.69 MW (max), using processor specific storage

 CPU Time for READ_OSV_SBUF:         0.06 sec. Elapsed time:     0.38 sec. Memory usage:     5.20 MW (max).
 CPU Time for PNO_SMAT:              0.74 sec. Elapsed time:     0.96 sec. Memory usage:     5.18 MW (max).

 Denominator shift:          0.2000

 ITER.      SQ.NORM     CORR.ENERGY   TOTAL ENERGY   ENERGY CHANGE     VAR    DIIS
   1      0.44465445    -1.24150973  -306.39000940    -1.24150973  0.11D-04   1  1
   2      0.44422850    -1.24159625  -306.39009592    -0.00008652  0.12D-06   2  2
   3      0.44400041    -1.24159680  -306.39009648    -0.00000056  0.30D-08   3  3

 LMP2 results with LCCSD domains:
 ================================
                                            PNO-LMP2        PNO-LMP2_CORR
  PNO-LMP2 correlation energy          -1.241596803149    -1.243696312641
  PNO-LMP2 total energy              -306.390096478719  -306.392195988211

  PNO-LMP2 domain correction           -0.002099509493

 CPU Time for PNO-LMP2(tot):        25.75 sec. Elapsed time:    31.72 sec. Memory usage:    27.71 MW (max).

 Energy thresholds for pair classes:  THRCLOSE=1.00D-04  THRWEAK= 1.00D-05  THRDISTC=0.00D+00

 Strong and close pairs optimized in LCCSD, close pair residuals are approximated (keepcls=1).

 Number of optimized pairs:         171
 Number of strong pairs:            154
 Number of close pairs:              17
 Number of weak pairs:                0
 Total number of pairs:             171

 Length of pair-specific S-blocks:   184.66 MW,  length of unique S-blocks    45.98 MW

 CPU Time for LCC_opdom:             0.08 sec. Elapsed time:     0.71 sec. Memory usage:     0.73 MW (max).
 CPU Time for LCC_float:             0.01 sec. Elapsed time:     0.23 sec. Memory usage:     0.47 MW (max).

 CPU Time for LCC_opdom:             0.10 sec. Elapsed time:     0.39 sec. Memory usage:     0.73 MW (max).
 CPU Time for LCC_load:              0.02 sec. Elapsed time:     0.19 sec. Memory usage:     4.18 MW (max).

 Estimated GA usage of PNO-LCCSD integrals:                      0.00 MW
 Maximum GA usage after allocating GAs for CCSD integrals:       0.00 MW

 CPU Time for CCSD integrals:      388.88 sec. Elapsed time:   410.73 sec. Memory usage:    24.40 MW (max).

 GA space for pno_smat:             45.98 MW (tot),             45.98 MW (min),             45.98 MW (max), using node specific storage
 CPU Time for OSV_SMAT_LCC:          0.16 sec. Elapsed time:     0.47 sec. Memory usage:    27.58 MW (max).
 CPU Time for READ_OSV_SBUF:         0.00 sec. Elapsed time:     0.13 sec. Memory usage:    27.58 MW (max).
 CPU Time for PNO_SMAT_LCC:          3.58 sec. Elapsed time:     3.93 sec. Memory usage:    25.11 MW (max).

 Current GA usage:                   0.00 MW.  Maximum GA usage up to this point:            0.00 MW

 Solving PNO-LCCSD equations

 K-Operators in non-linear terms are projected

 Close pairs are approximated (keepcls=1, max_ijkl=0, skip_ijkl=0, maxik=0)

 Weak pairs pairs are treated by CEPA(2)

 Denominator shifts:     0.15 (singles),  0.20 (doubles)

 ITER.      SQ.NORM     CORR.ENERGY   TOTAL ENERGY   ENERGY CHANGE     VAR        VART1     DIIS     TIME
    1     0.45483031    -1.21688234  -306.36538201     0.02471447    0.63D-02    0.11D-01   1  1    36.33
    2     0.44609859    -1.26021757  -306.40871725    -0.04333524    0.14D-02    0.48D-03   2  2    65.19
    3     0.49686199    -1.26471917  -306.41321884    -0.00450160    0.16D-03    0.46D-03   3  3    93.68
    4     0.51561934    -1.26668732  -306.41518700    -0.00196815    0.45D-04    0.13D-03   4  4   121.78
    5     0.52525292    -1.26761578  -306.41611546    -0.00092846    0.11D-04    0.49D-04   5  5   149.71
    6     0.53181251    -1.26806952  -306.41656919    -0.00045374    0.26D-05    0.90D-05   6  6   178.14
    7     0.53502734    -1.26829778  -306.41679746    -0.00022826    0.60D-06    0.11D-05   7  7   206.51
    8     0.53567345    -1.26834848  -306.41684816    -0.00005070    0.95D-07    0.25D-06   8  8   238.97
    9     0.53582643    -1.26835817  -306.41685785    -0.00000969    0.19D-07    0.63D-07   1  8   267.59
   10     0.53586519    -1.26836312  -306.41686279    -0.00000494    0.38D-08    0.19D-07   2  8   296.42
   11     0.53586774    -1.26836063  -306.41686031     0.00000248    0.11D-08    0.41D-08   3  8   326.02
   12     0.53587793    -1.26836131  -306.41686098    -0.00000068    0.25D-09    0.85D-09   4  8   354.27

 Convergence reached

  T1 diagnostic   0.02419
  D1 diagnostic   0.11248
   
  Reference energy                   -305.148499675570

  Correlation contributions without domain correction:

  PNO-LCCSD singles energy              0.000152617820
  PNO-LCCSD strong pair energy         -1.267648646113
  PNO-LCCSD close pair energy          -0.000865278334
  PNO-CEPA(2) weak pair energy          0.000000000000
  PNO-SCS-LMP2 distant pair energy      0.000000000000

  Results including domain correction:

  PNO-LMP2 correction                  -0.002099509493
  PNO-LCCSD correlation energy         -1.270460816119
 !PNO-LCCSD total energy             -306.418960491689

 Maximum stack memory usage in PNO-LCCSD iterations: 28.36 MW
 Maximum GA memory usage up to this point: .00 MW
 Maximum local disk usage in MB: 4904.22 (current)   4904.22 (maximum)   4904.22 (average)
 Maximum local disk usage per node: 4904.22 MB

 CPU Time for PNO_LCCSD(it):       295.54 sec. Elapsed time:   358.15 sec. Memory usage:    25.01 MW (max).

 Selecting triples using THRCLOSE_T_PRE = 0.100E-03, THRWEAK_T_PRE = 0.000E+00, TRIPTYP = 2
 Selected 1122 of 1122 triples

 DF domains for (T) with RDFDOM_T: .0, IDFDOM_T: 0

 Options for (T) corrections
   Post (T0) method -  (T1): F, iterative (T): T
   Iterative (T) - THRCONV_TRIP: 0.100E-05, SKIP_TIJKW: F, THRFINT_EN: 0.100E-03
   Triple-specific virtuals - TNO
   PNO thresholds - (T0): 0.100E-08, post (T0): 0.100E-06
   LMO domains - MODOM_T0: 2
   Technical settings - TITER_DYNAMIC: F, USE_SOSV: F


 Triple PAO domain sizes: 460 (maximum), 413.8 (average) 418.9 (average, cubed)
 Triple OSV domain sizes: 469 (maximum), 329.4 (average) 341.0 (average, cubed)
 Triple PNO domain sizes: 172 (maximum), 121.7 (average) 124.5 (average, cubed)
 Triple PNO (iterations) domain sizes: 96 (maximum), 62.7 (average) 65.2 (average, cubed)

 Estimated GA usage of (T) amplitudes 340.53 MW


                                         Large domain       Small domain       Domain corr.
  Triples [T0] contribution            -0.074585416449    -0.073399530596    -0.001185885853
  Triples (T0) contribution            -0.070764179643    -0.069596177189    -0.001168002455

  PNO-LCCSD(T0) corr. energy           -1.341224995763
  PNO-LCCSD(T0) total energy         -306.489724671333


 Screening triples with THRTRIP_IT = 0.100E-06
 1100 out of 1122 ( 98.04%) triples survived for the iterations

 ITER.   [T] ENERGY    ENERGY CHANGE    TIME
    0    -0.07339827     0.00000000     0.00
    1    -0.07571396    -0.00231569   175.83
    2    -0.07612134    -0.00040738   355.18
    3    -0.07614844    -0.00002710   533.01
    4    -0.07615613    -0.00000770   703.64
    5    -0.07615655    -0.00000041   868.89

 Convergence reached


                                         Small domain        Corrected
  Triples [T] contribution             -0.076157805283    -0.077343691135
  Triples (T) contribution             -0.072070003229    -0.073238005684

  PNO-LCCSD(T) corr. energy            -1.343698821803
 !PNO-LCCSD(T) total energy          -306.492198497373


 GA_Put processed 2182.18 MW globally, average elapsed time per process: 8.57 sec
 GA_Get processed 143049.33 MW globally, average elapsed time per process: 220.14 sec

 REMARK: Memory usage printed may not be correct.
 CPU Time for PNO-LCCSD(T)(tot):  3231.90 sec. Elapsed time:  3403.52 sec. Memory usage:    27.71 MW (max).

 Direct file usage                  19.75 MB (local),           19.75 MB (max),             19.75 MB (tot)

 Max. memory usage (overall):       27.71 MW (local),           27.71 MW (max),             27.71 MW (tot)
 Max. GA usage (overall):            0.00 MW (local),            0.00 MW (max),              0.00 MW (tot)
 Max. memory+GA usage:              27.71 MW (local),           27.71 MW (max),             27.71 MW (tot)


 **********************************************************************************************************************************
 DATASETS  * FILE   NREC   LENGTH (MB)   RECORD NAMES
              1      19       37.96       500      610      700      900      950      970     1000      129      960     1100   
                                          VAR    BASINP    GEOM    SYMINP    ZMAT    AOBASIS   BASIS     P2S    ABASIS      S 
                                         1400     1410     1200     1210     1080     1600     1650     1700      960(1)
                                           T        V       H0       H01     AOSYM     SMH    MOLCAS    OPER    ABASIS    

              2       4        8.12       700     1000      520     2100   
                                         GEOM     BASIS   MCVARS     RHF  

 PROGRAMS   *        TOTAL  LCCSD(T)     DF-HF       INT
 CPU TIMES  *      3316.16   3258.00     57.10      0.74
 REAL TIME  *      3541.85 SEC
 DISK USED  *       205.84 MB
 **********************************************************************************************************************************

 PNO-LCCSD(T)/aug-cc-pVTZ energy=   -306.492198497373

    PNO-LCCSD(T)           DF-HF
   -306.49219850   -305.14849968
 **********************************************************************************************************************************
 Molpro calculation terminated
