
 Primary working directories    : /var/tmp/pbs.368303.bp1/molpro.JfqCanwiPl
 Secondary working directories  : /var/tmp/pbs.368303.bp1/molpro.JfqCanwiPl
 Wavefunction directory         : /home/lb17101/molpro_test/inp/lowmem/
 Main file repository           : /home/lb17101/molpro_test/inp/lowmem/

 id        : uob

 Nodes                         nprocs
 bp1-01-08-01.data.bp.acrc.priv    1

 Using customized tuning parameters: mindgm=1; mindgv=20; mindgc=4; mindgr=1; noblas=0; minvec=7
 default implementation of scratch files=df  


 Variables initialized (934), CPU time= 0.00 sec
 geomtyp=xyz
 nosym
 noorient
 geometry={
  C      -0.817124855411       0.998242096877      -0.038005469421
  C      -0.742289382837      -0.086060754173       0.938653644988
  C      -0.060603669924      -1.077261243972      -0.095619822645
  C       0.013953029998       0.133711463341      -0.748832025017
  C       1.488781348196       0.059484089190      -0.009036812664
  H       0.004824529448       2.332791668128       0.036398485982
  H      -1.794724660781       1.470313844631      -0.144207304721
  H      -1.341902870124      -0.718262014807       1.976798147010
  H      -1.325094497402      -0.900611336356      -0.361968635468
  H       1.641315808890      -1.371737862009      -0.428197711288
  H      -0.047153237189       0.827566270426      -1.895202472652
  H       1.785329431971       0.012842878670       0.694300109470
  H       1.413259695302      -0.560187468823      -1.089388984879
 }
 basis=avtz
 df-hf
 pno-lccsd(t)
 Commands  initialized (763), CPU time= 0.01 sec, 617 directives.
 Default parameters read. Elapsed time= 0.10 sec

 Checking input...
 Passed
1


                                         ***  PROGRAM SYSTEM MOLPRO  ***
                                       Copyright, TTI GmbH Stuttgart, 2015
                                    Version 2019.2 linked Oct 25 2019 22:50:27


 **********************************************************************************************************************************
 LABEL *                                                                                 
  64 bit serial version                                                                  DATE: 22-Sep-20          TIME: 21:47:21  
 **********************************************************************************************************************************

 SHA1:             8dbd9ae1082e4ce945b0f27595c9eb2d4aa09004
 **********************************************************************************************************************************
 SETTING GEOMTYP        =    XYZ

 Variable memory set to 1024000000 words,  buffer space 

 ZSYMEL=NOSYM

 SETTING BASIS          =    AVTZ


 Recomputing integrals since basis changed


 Using spherical harmonics

 Library entry C      S aug-cc-pVTZ          selected for orbital group  1
 Library entry C      P aug-cc-pVTZ          selected for orbital group  1
 Library entry C      D aug-cc-pVTZ          selected for orbital group  1
 Library entry C      F aug-cc-pVTZ          selected for orbital group  1
 Library entry H      S aug-cc-pVTZ          selected for orbital group  2
 Library entry H      P aug-cc-pVTZ          selected for orbital group  2
 Library entry H      D aug-cc-pVTZ          selected for orbital group  2


 PROGRAM * SEWARD (Integral evaluation for generally contracted gaussian basis sets)     Author: Roland Lindh, 1990

 Geometry written to block  1 of record 700


 Point group  C1  



 ATOMIC COORDINATES

 NR  ATOM    CHARGE       X              Y              Z

   1  C       6.00   -1.544142186    1.886404169   -0.071819928
   2  C       6.00   -1.402723639   -0.162631255    1.773798315
   3  C       6.00   -0.114524338   -2.035728716   -0.180695277
   4  C       6.00    0.026367405    0.252678045   -1.415087441
   5  C       6.00    2.813389007    0.112408637   -0.017077101
   6  H       1.00    0.009117039    4.408337358    0.068783170
   7  H       1.00   -3.391538078    2.778490484   -0.272512311
   8  H       1.00   -2.535828910   -1.357318494    3.735607101
   9  H       1.00   -2.504065689   -1.701908770   -0.684021587
  10  H       1.00    3.101637363   -2.592208874   -0.809176401
  11  H       1.00   -0.089106704    1.563873601   -3.581413624
  12  H       1.00    3.373783669    0.024269523    1.312037055
  13  H       1.00    2.670673767   -1.058600894   -2.058646825

 Bond lengths in Bohr (Angstrom)

 1-2  2.761313469  1-4  2.634374505  1-7  2.061302259  2-3  2.997998788  2-4  3.519058878
     ( 1.461224160)     ( 1.394050953)     ( 1.090794181)     ( 1.586472637)     ( 1.862205762)

 2-8  2.561229952  3-4  2.603916282  3-5  3.635098562  3-9  2.464686795  4-5  3.121153285
     ( 1.355344523)     ( 1.377933155)     ( 1.923611318)     ( 1.304256084)     ( 1.651643190)

  4-11  2.534864333   5-12  1.445114224   5-13  2.357888441
       ( 1.341392438)       ( 0.764721514)       ( 1.247740829)

 Bond angles

  1-2-3   92.85939083   1-2-4   47.74354845   1-2-8  146.66069493   1-4-2   50.87822210

  1- 4- 3  105.72606356   1- 4- 5  109.37916805   1- 4-11   95.03842218   2- 1- 4   81.37822945

  2-1-7  115.60205851   2-3-4   77.48002756   2-3-5   86.99280309   2-3-9   68.40320831

  2- 4- 3   56.27102862   2- 4- 5   87.21618883   2- 4-11  144.78315190   3- 2- 4   46.24894381

  3- 2- 8  113.45462268   3- 4- 5   78.25737025   3- 4-11  149.00975739   3- 5- 4   44.53418277

  3- 5-12  108.52387693   3- 5-13   67.59153230   4- 1- 7  138.85447652   4- 2- 8  158.24980067

  4- 3- 5   57.20844698   4- 3- 9   80.59681791   4- 5-12  139.55005955   4- 5-13   65.19363266

  5- 3- 9  135.23920966   5- 4-11  116.53328414  12- 5-13  142.14121380

 NUCLEAR CHARGE:                   38
 NUMBER OF PRIMITIVE AOS:         551
 NUMBER OF SYMMETRY AOS:          490
 NUMBER OF CONTRACTIONS:          414   (  414A   )
 NUMBER OF CORE ORBITALS:           5   (    5A   )
 NUMBER OF VALENCE ORBITALS:       28   (   28A   )


 NUCLEAR REPULSION ENERGY  175.95998823


 Eigenvalues of metric

         1 0.348E-05 0.670E-05 0.784E-05 0.894E-05 0.118E-04 0.182E-04 0.196E-04 0.235E-04


 OPERATOR DM      FOR CENTER  0  COORDINATES:    0.000000    0.000000    0.000000


 **********************************************************************************************************************************
 DATASETS  * FILE   NREC   LENGTH (MB)   RECORD NAMES
              1      18       36.46       500      610      700      900      950      970     1000      129      960     1100   
                                          VAR    BASINP    GEOM    SYMINP    ZMAT    AOBASIS   BASIS     P2S    ABASIS      S 
                                         1400     1410     1200     1210     1080     1600     1650     1700   
                                           T        V       H0       H01     AOSYM     SMH    MOLCAS    OPER   

 PROGRAMS   *        TOTAL       INT
 CPU TIMES  *         0.55      0.44
 REAL TIME  *         1.70 SEC
 DISK USED  *        37.06 MB
 **********************************************************************************************************************************


 PROGRAM * RHF-SCF (CLOSED SHELL)       Authors: W. Meyer, H.-J. Werner


 NUMBER OF ELECTRONS:      19+   19-    SPACE SYMMETRY=1    SPIN SYMMETRY: Singlet 
 CONVERGENCE THRESHOLDS:    1.00E-05 (Density)    1.00E-07 (Energy)
 INTEGRAL THRESHOLDS:       1.00E-12 (Initial)    1.00E-12 (Final)
 MAX. NUMBER OF ITERATIONS:       60
 INTERPOLATION TYPE:            DIIS
 INTERPOLATION STEPS:              2 (START)      1 (STEP)
 LEVEL SHIFTS:                  0.00 (CLOSED)  0.00 (OPEN) 




 Basis set AUG-CC-PVTZ/JKFIT generated.  Number of basis functions:   888 

 Orbital guess generated from atomic densities. Full valence occupancy:   33
 Using density fitting in orbital guess

 Coulomb and exchange fitting
 Thresholds for fitting:       THRAO_COUL= 1.0D-15    THRAO_EXCH= 1.0D-13    THRMO= 1.0D-12    THRPROD= 1.0D-12    THRASM= 1.0D-12
                               THR2HLF=    1.0D-12

 Molecular orbital dump at record        2100.2

 Initial occupancy:  19

 ITERATION   DDIFF            GRAD            ENERGY        2-EL.EN.            DIPOLE MOMENTS         DIIS   CPU(IT)  CPU(TOT)  ORB.
    1      0.000D+00      0.000D+00      -193.04364305    479.058248   -0.17458    0.02459   -0.84101    0      3.0      6.4     start
    2      0.000D+00      0.261D-02      -193.11560336    473.269488    0.09580    0.27780    0.20555    1      3.0      9.4     diag
    3      0.402D-02      0.140D-02      -193.13167973    476.443343   -0.16504    0.01318   -0.19788    2      3.0     12.5     diag
    4      0.140D-02      0.469D-03      -193.13571905    475.630441   -0.11679    0.13156   -0.03259    3      3.0     15.5     diag
    5      0.770D-03      0.205D-03      -193.13655219    475.653958   -0.14940    0.08034   -0.04799    4      3.0     18.5     diag
    6      0.293D-03      0.877D-04      -193.13697297    475.695460   -0.17816    0.11478   -0.01411    5      3.1     21.6     diag
    7      0.242D-03      0.658D-04      -193.13717675    475.668327   -0.19059    0.11597   -0.00536    6      3.1     24.7     diag
    8      0.175D-03      0.350D-04      -193.13728473    475.681232   -0.21273    0.12865    0.01087    7      3.0     27.7     diag
    9      0.168D-03      0.202D-04      -193.13731729    475.679584   -0.22441    0.13806    0.02091    8      3.0     30.7     diag
   10      0.114D-03      0.750D-05      -193.13732158    475.676214   -0.23036    0.14028    0.02555    9      3.1     33.8     orth
   11      0.419D-04      0.308D-05      -193.13732199    475.678085   -0.23158    0.14173    0.02629    9      3.0     36.8     diag
   12      0.126D-04      0.136D-05      -193.13732206    475.676484   -0.23211    0.14143    0.02653    9      3.0     39.8     diag
   13      0.326D-05      0.674D-06      -193.13732207    475.677208   -0.23201    0.14151    0.02649    0      3.0     42.8     orth

 Final occupancy:  19

 !RHF STATE  1.1 Energy              -193.137322073770
 Nuclear energy                       175.95998823
 One-electron energy                 -606.93591435
 Two-electron energy                  237.83860405
 Virial quotient                       -0.99720459
 !RHF STATE  1.1 Dipole moment         -0.23200740     0.14151363     0.02649052
 Dipole moment /Debye                  -0.58966537     0.35966821     0.06732777

 Orbital energies:

         1.1          2.1          3.1          4.1          5.1          6.1          7.1          8.1          9.1         10.1
    -11.315551   -11.293390   -11.291913   -11.257168   -11.251674    -1.270047    -1.038443    -0.916303    -0.871402    -0.741687

        11.1         12.1         13.1         14.1         15.1         16.1         17.1         18.1         19.1         20.1
     -0.702139    -0.634725    -0.574452    -0.534733    -0.470462    -0.450631    -0.410938    -0.351718    -0.251976     0.026309

        21.1
      0.032730


 HOMO     19.1    -0.251976 =      -6.8566eV
 LUMO     20.1     0.026309 =       0.7159eV
 LUMO-HOMO         0.278285 =       7.5725eV


 **********************************************************************************************************************************
 DATASETS  * FILE   NREC   LENGTH (MB)   RECORD NAMES
              1      18       36.46       500      610      700      900      950      970     1000      129      960     1100   
                                          VAR    BASINP    GEOM    SYMINP    ZMAT    AOBASIS   BASIS     P2S    ABASIS      S 
                                         1400     1410     1200     1210     1080     1600     1650     1700   
                                           T        V       H0       H01     AOSYM     SMH    MOLCAS    OPER   

              2       4        7.14       700     1000      520     2100   
                                         GEOM     BASIS   MCVARS     RHF  

 PROGRAMS   *        TOTAL     DF-HF       INT
 CPU TIMES  *        43.39     42.84      0.44
 REAL TIME  *        47.66 SEC
 DISK USED  *       141.85 MB
 **********************************************************************************************************************************


 World communicator: rank 0, size 1
 Shared-memory communicator: rank 0, size 1
 Current node: rank 0, 1 node(s) in total

 Restoring occupations from record    2100.2

 Program * PNO-LCCSD(T)   Authors:   H.-J. Werner (2012), M. Schwilk, Q. Ma (2016)

 Number of core orbitals:           5
 Number of closed-shell orbitals:  14
 Number of open-shell orbitals:     0
 Number of valence orbitals:       14
 Number of external orbitals:     395

 Basis set AUG-CC-PVTZ/MP2FIT generated. Number of basis functions:   898 

 iclose= 0  iweak= 0  rclose= 0.00  rweak= 0.00  thrclos= 1.0D-04  thrweak= 1.0D-05  open-shell=F

 Use_GA=T  Use_PAO=T  PAO_pairdom=F  PAO_trans=T  LOCFIT= 1  LOCRI=F  EIJDIP=2  PROJECT_K=T

 Threshold for small PAO norm:    0.00D+00
 Threshold for redundancy check:  1.00D-06

 OPTIONS FOR CCSD:   method= LCCSD     icepa= -1  icepac=-1  icepaw= 2  keepcls=1  maxcls=1  maxclt=2  maxwkt=2  do_mp2w=F
                     project_k=T    project_j=ALL    idexp4_close=0

 OPTIONS FOR SINGLES IN CCSD:   isexp4=  1  isexp5= 0  isexp6= 0  project_je=T  project_s=WEAK
                                includeGE= 1  includeKEKJ= 1  includeJEKJ= 0  includeJ= 2  undress=T  project_ke=2

 Molecular orbitals read from record     2100.2  Type=RHF/CANONICAL (state 1.1)
 Orbital energies read from record       2100.2  Type=RHF/CANONICAL (state 1.1)
 Fock matrix read from record            2100.2  Type=RHF/TOTAL (state 1.1)

  Reference energy                   -193.137322073771


 Computing intrinsic bond orbitals
 =================================

 Basis set MINAO-AUTO-PP generated.      Number of basis functions:   33 

 Polarized AO type:                A = (O Ot + (1-O)(1-Ot)) P12
 Orthogonalization method:         Symmetric (Loewdin)
 Localization functional:          L = sum[A,i] <i|n_A|i>^4 -> max

 Localization group 1:  14 orbitals, occupancy  2.000
 Iterative localization: IB/PM,   11 iter; Final gradient 0.96E-08

 Summary of localized orbital composition:   [THRPRINT= 0.020]

   ORB  GRP  ORB.ENERGY      CENTERS/CHARGES
     6   1    -0.884985      C  5   1.255   H 12   0.739
     7   1    -0.839589      C  1   0.999   C  4   0.963   (other: 0.038)
     8   1    -0.823436      C  4   1.059   C  3   0.908   (other: 0.032)
     9   1    -0.784129      C  2   1.033   C  1   0.948
    10   1    -0.725181      C  5   0.724   H 10   0.637   H 13   0.568   C  3   0.044   (other: 0.026)
    11   1    -0.718627      C  1   1.184   H  7   0.797
    12   1    -0.689972      C  5   0.978   C  4   0.877   C  3   0.090   (other: 0.055)
    13   1    -0.665692      C  2   1.076   C  3   0.861   H 11   0.031   (other: 0.031)
    14   1    -0.619244      C  2   1.143   H  8   0.849
    15   1    -0.593598      C  4   1.075   H 11   0.889   (other: 0.036)
    16   1    -0.546539      H  9   0.790   C  2   0.709   C  3   0.429   C  1   0.031   H  6   0.022
    17   1    -0.482452      H  6   0.996   C  1   0.953   (other: 0.051)
    18   1    -0.451729      C  3   1.839   H  9   0.042   H 10   0.036   C  2   0.035   (other: 0.048)
    19   1    -0.394484      C  5   1.531   C  3   0.166   H 13   0.156   H 10   0.061   C  2   0.043   H 11   0.022   (other: 0.021)

 CPU Time for LMOs:                  0.06 sec. Elapsed time:     0.08 sec. Memory usage:     0.69 MW (max).
 CPU Time for PAOs:                  0.01 sec. Elapsed time:     0.01 sec. Memory usage:     0.87 MW (max).

 Distance criteria for pair classes:       RCLOSE= 0.0  RWEAK= 0.0  RDIST= 0.0  RVDIST=-1.0
 Connectivity criteria for pair classes:   ICLOSE=   0  IWEAK=   0  IDIST=   0  IVDIST=  -1

 Augmenting orbital domains by 2 shell(s) of neighboring atoms.  Minimum radius:     5.00
 Augmenting DF domains by 2 shell(s) of neighboring atoms.  Minimum radius:          5.00

 Generating LMO domains. Method=COEFF  Threshold=1.00D-06

 Fitting truncated LMOs to exact LMOs

 Minimum LMO domain size:                414
 Maximum LMO domain size:                414
 Average LMO domain size:              414.0   (sparsity   0.00 %)

 CPU time for Fitlmo:                   0.00 sec.

 PAO orbital domain sizes:   322 (min),  414 (max),  359.8 (average)
 DF  orbital domain sizes:   714 (min),  898 (max),  789.6 (average)

 CPU Time for Domains:               0.00 sec. Elapsed time:     0.00 sec. Memory usage:     0.34 MW (max).

 Number of residual matrices on current processor:       14
 Number of amplitude matrices on current processor:     105

 Fitting basis AUG-CC-PVTZ-MP2F loaded

 Threshold for block screening:     1.00D-05
 Threshold for integral screening:  1.00D-10

 CPU time for create_blocked_AO basis:                 0.02 sec, 414 functions, 18 blocks.
 CPU time for create_blocked_DF basis:                 0.04 sec, 898 functions, 31 blocks.

 Fitting basis center dimensions: min=   46, max=  106, average= 69.08
 Fitting basis block dimensions:  min=  12, max=  36, average= 28.97

 CPU time for project LMOs:                                    0.00 sec.
 CPU time for project PAOs:                                    0.00 sec.

 Screening PAOs with threshold      1.00D-06

 Minimum PAO vector length:              414
 Maximum PAO vector length:              414
 Average PAO vector length:            414.0  (sparsity  0.00 %)

 CPU time for cut/fit of PAO vectors:                          0.00 sec.

 CPU Time for Block_basis:           0.06 sec. Elapsed time:     0.07 sec. Memory usage:     0.38 MW (max).
 CPU Time for Orbitals(tot):         0.13 sec. Elapsed time:     0.16 sec. Memory usage:     0.38 MW (max).
 CPU Time for PAO integrals:         3.66 sec. Elapsed time:     3.71 sec. Memory usage:     4.16 MW (max).
 CPU Time for PAO integrals:         0.00 sec. Elapsed time:     0.00 sec. Memory usage:     2.21 MW (max).
 CPU Time for PAO amplitudes:        0.70 sec. Elapsed time:     0.71 sec. Memory usage:     4.50 MW (max).

 Generating OSVs using PAO(PERT) amplitudes, throsv= 1.0D-09

 Minimum OSV orbital domain size:         98
 Maximum OSV orbital domain size:        219
 Average OSV orbital domain size:      154.1

 CPU Time for OSV_generate:          0.24 sec. Elapsed time:     0.25 sec. Memory usage:     3.50 MW (max).

 Computing distant pair energies using multipole approximation up to order   3

 CPU time for computing multipole integrals (PAO/LMO):         0.44 sec
 CPU time for transforming integrals to OSV domains:           0.00 sec
 CPU time for distant pair energies:                           0.62 sec

 Distant pairs selected using the multipole order 3,  thrdist=1.0D-06  thrvdist=1.0D-07

 Semi-canonical distant pair energies, multipole-orders 1-3    0.00000000  0.00000000  0.00000000


 CPU Time for osv_mltp:              0.59 sec. Elapsed time:     0.62 sec. Memory usage:     1.16 MW (max).

 Number of strong pairs:                 105
 Number of close pairs:                    0
 Number of weak pairs:                     0
 Number of distant pairs:                  0  (treated by iterative multipole approximation, thrdist= 1.0D-06)
 Number of very distant pairs:             0  (treated by non-iterative multipole approximation, thrvdist= 1.0D-07)
 Total number of pairs in LMP2:          105

 Number of pairs per orbital (min, max, average):

 Strong pairs:              14    14    14.0
 Close pairs:                0     0     0.0
 Weak  pairs:                0     0     0.0
 Distant  pairs:             0     0     0.0
 Very distant pairs:         0     0     0.0

 CPU Time for Distribute_pairs:      0.00 sec. Elapsed time:     0.00 sec. Memory usage:     1.16 MW (max).

 Number of residual matrices on current processor:      105
 Number of amplitude matrices on current processor:     105

 Minimum OSV pair domain size:            98
 Maximum OSV pair domain size:           415
 Average OSV pair domain size:         287.7
 Total number of OSVs:                  2158
 Total number of OSV amplitudes:     9204104

 CPU Time for OSV_pairdom:           3.61 sec. Elapsed time:     3.73 sec. Memory usage:    10.31 MW (max).
 CPU Time for OSV integrals:         6.76 sec. Elapsed time:     7.14 sec. Memory usage:    22.02 MW (max).
 CPU Time for OSV_smatrix:           0.15 sec. Elapsed time:     0.17 sec. Memory usage:    19.34 MW (max).

 nosvmx= 415  nosvt= 2158  lens=         0  lenr=   9036373  lent=   9204104  leng=   9204104  lenw=   9146740  lenosv=    172225

 Generating PNOs using OSV(SC) amplitudes, THRPNO_EN=0.9970,  THRPNO_OCC=1.0D-08,  KEEP_DIAG=T  THRPNO_DIAG=0.0D+00

 Generating PNOs for LCCSD with thresholds: THREN_CC:  0.99000, THRPNO_CC:1.0D-07

                                                PNO-LMP2     PNO_LCCSD
 Minimum PNO domain size:                            68            43
 Maximum PNO domain size:                           173           100
 Average PNO domain size:                         116.8          68.2
 Total number of PNOs:                            12268          7162
 Total number of PNO amplitudes:                1481270
 Local number of PNO amplitudes:                1481270
 Length of local PNO residual:                  1481270
 Length of local W-matrix:                      3650058

 Semi-canonical OSV correlation energy:     -0.91685881
 Semi-canonical PNO correlation energies:   -0.91658639   -0.91513195

 Semi-canonical domain correction:          -0.00027242   -0.00172686

 CPU Time for PNO_generate:          2.54 sec. Elapsed time:     2.76 sec. Memory usage:    21.09 MW (max).

 Local length of PNO overlap matrix for PNO-LMP2:   17874463  Number of blocks:    1274  number of pairs   105

 GA space for pno_smat:             17.87 MW (tot),             17.87 MW (min),             17.87 MW (max), using processor specific storage

 CPU Time for READ_OSV_SBUF:         0.01 sec. Elapsed time:     0.01 sec. Memory usage:     8.52 MW (max).
 CPU Time for PNO_SMAT:              1.03 sec. Elapsed time:     1.12 sec. Memory usage:     8.47 MW (max).

 Denominator shift:          0.2000

 ITER.      SQ.NORM     CORR.ENERGY   TOTAL ENERGY   ENERGY CHANGE     VAR    DIIS
   1      0.32677517    -0.93753550  -194.07485757    -0.93753550  0.43D-02   1  1
   2      0.35000095    -0.95180808  -194.08913016    -0.01427258  0.34D-03   2  2
   3      0.36798978    -0.95288732  -194.09020940    -0.00107924  0.26D-04   3  3
   4      0.37057297    -0.95295453  -194.09027660    -0.00006720  0.32D-05   4  4
   5      0.37054846    -0.95296315  -194.09028522    -0.00000862  0.23D-06   5  5
   6      0.37048960    -0.95296378  -194.09028586    -0.00000064  0.16D-07   6  6
   7      0.37050462    -0.95296383  -194.09028590    -0.00000005  0.78D-09   7  7

                                            PNO-LMP2        PNO-LMP2_CORR
  PNO-LMP2 correlation energy          -0.952963830676    -0.953236248518
 !PNO-LMP2 total energy              -194.090285904448  -194.090558322289

 CPU Time for PNO-LMP2:              3.43 sec. Elapsed time:     4.18 sec. Memory usage:     9.47 MW (max).

 PNO-LMP2 energy contributions
 =============================

                            OSV-LMP2(SC)     PNO-LMP2    PNO-SCS-LMP2   %(PNO/OSV)  AVDOM(PNO)
 Strong pair energy:        -0.91685881    -0.95296383    -0.93984041     103.94      116.8
 Close pair energy:          0.00000000     0.00000000     0.00000000       0.00        0.0
 Weak pair energy :          0.00000000     0.00000000     0.00000000       0.00        0.0
 Distant pair energy:        0.00000000     0.00000000     0.00000000       0.00        0.0
 Total correl. energy:      -0.91685881    -0.95296383    -0.93984041     103.94      116.8

 GA space for pno_smat:              6.00 MW (tot),              6.00 MW (min),              6.00 MW (max), using processor specific storage

 CPU Time for READ_OSV_SBUF:         0.03 sec. Elapsed time:     0.07 sec. Memory usage:     5.16 MW (max).
 CPU Time for PNO_SMAT:              0.68 sec. Elapsed time:     0.76 sec. Memory usage:     5.11 MW (max).

 Denominator shift:          0.2000

 ITER.      SQ.NORM     CORR.ENERGY   TOTAL ENERGY   ENERGY CHANGE     VAR    DIIS
   1      0.36999175    -0.95034921  -194.08767129    -0.95034921  0.20D-04   1  1
   2      0.36924327    -0.95048431  -194.08780638    -0.00013509  0.47D-06   2  2
   3      0.36878459    -0.95048614  -194.08780821    -0.00000183  0.28D-07   3  3
   4      0.36870489    -0.95048623  -194.08780830    -0.00000009  0.22D-08   4  4

 LMP2 results with LCCSD domains:
 ================================
                                            PNO-LMP2        PNO-LMP2_CORR
  PNO-LMP2 correlation energy          -0.950486227194    -0.953236248518
  PNO-LMP2 total energy              -194.087808300965  -194.090558322289

  PNO-LMP2 domain correction           -0.002750021324

 CPU Time for PNO-LMP2(tot):        23.91 sec. Elapsed time:    25.84 sec. Memory usage:    26.38 MW (max).

 Energy thresholds for pair classes:  THRCLOSE=1.00D-04  THRWEAK= 1.00D-05  THRDISTC=0.00D+00

 Strong and close pairs optimized in LCCSD, close pair residuals are approximated (keepcls=1).

 Number of optimized pairs:         105
 Number of strong pairs:            105
 Number of close pairs:               0
 Number of weak pairs:                0
 Total number of pairs:             105

 Length of pair-specific S-blocks:   110.10 MW,  length of unique S-blocks    25.40 MW

 CPU Time for LCC_opdom:             0.02 sec. Elapsed time:     0.03 sec. Memory usage:     0.50 MW (max).
 CPU Time for LCC_float:             0.01 sec. Elapsed time:     0.00 sec. Memory usage:     0.38 MW (max).

 CPU Time for LCC_opdom:             0.02 sec. Elapsed time:     0.03 sec. Memory usage:     0.50 MW (max).
 CPU Time for LCC_load:              0.01 sec. Elapsed time:     0.01 sec. Memory usage:     3.90 MW (max).

 Estimated GA usage of PNO-LCCSD integrals:                      0.00 MW
 Maximum GA usage after allocating GAs for CCSD integrals:       0.00 MW

 CPU Time for CCSD integrals:      293.88 sec. Elapsed time:   317.84 sec. Memory usage:    18.25 MW (max).

 GA space for pno_smat:             25.40 MW (tot),             25.40 MW (min),             25.40 MW (max), using node specific storage
 CPU Time for OSV_SMAT_LCC:          0.14 sec. Elapsed time:     0.16 sec. Memory usage:    21.30 MW (max).
 CPU Time for READ_OSV_SBUF:         0.00 sec. Elapsed time:     0.00 sec. Memory usage:    21.30 MW (max).
 CPU Time for PNO_SMAT_LCC:          2.64 sec. Elapsed time:     2.78 sec. Memory usage:    18.84 MW (max).

 Current GA usage:                   0.00 MW.  Maximum GA usage up to this point:            0.00 MW

 Solving PNO-LCCSD equations

 K-Operators in non-linear terms are projected

 Close pairs are approximated (keepcls=1, max_ijkl=0, skip_ijkl=0, maxik=0)

 Weak pairs pairs are treated by CEPA(2)

 Denominator shifts:     0.15 (singles),  0.20 (doubles)

 ITER.      SQ.NORM     CORR.ENERGY   TOTAL ENERGY   ENERGY CHANGE     VAR        VART1     DIIS     TIME
    1     0.37658783    -0.92810500  -194.06542708     0.02238122    0.60D-02    0.79D-02   1  1    22.65
    2     0.36810776    -0.96445005  -194.10177213    -0.03634505    0.12D-02    0.35D-03   2  2    45.33
    3     0.41039465    -0.96784761  -194.10516968    -0.00339755    0.18D-03    0.31D-03   3  3    67.45
    4     0.42781713    -0.96937901  -194.10670108    -0.00153140    0.51D-04    0.90D-04   4  4    90.74
    5     0.43673505    -0.97002708  -194.10734915    -0.00064807    0.14D-04    0.42D-04   5  5   114.02
    6     0.44289544    -0.97027783  -194.10759990    -0.00025075    0.36D-05    0.12D-04   6  6   136.33
    7     0.44669034    -0.97042040  -194.10774248    -0.00014257    0.86D-06    0.31D-05   7  7   158.52
    8     0.44794195    -0.97046263  -194.10778471    -0.00004223    0.22D-06    0.70D-06   8  8   180.94
    9     0.44840168    -0.97047537  -194.10779745    -0.00001274    0.74D-07    0.14D-06   1  8   204.45
   10     0.44855442    -0.97048939  -194.10781146    -0.00001402    0.20D-07    0.23D-07   2  8   227.38
   11     0.44860072    -0.97048891  -194.10781098     0.00000048    0.40D-08    0.37D-08   3  8   250.65

 Convergence reached

  T1 diagnostic   0.02388
  D1 diagnostic   0.09787
   
  Reference energy                   -193.137322073771

  Correlation contributions without domain correction:

  PNO-LCCSD singles energy              0.000188881314
  PNO-LCCSD strong pair energy         -0.970677787881
  PNO-LCCSD close pair energy           0.000000000000
  PNO-CEPA(2) weak pair energy          0.000000000000
  PNO-SCS-LMP2 distant pair energy      0.000000000000

  Results including domain correction:

  PNO-LMP2 correction                  -0.002750021324
  PNO-LCCSD correlation energy         -0.973238927891
 !PNO-LCCSD total energy             -194.110561001662

 Maximum stack memory usage in PNO-LCCSD iterations: 22.54 MW
 Maximum GA memory usage up to this point: .00 MW
 Maximum local disk usage in MB: 5127.39 (current)   5127.39 (maximum)   5127.39 (average)
 Maximum local disk usage per node: 5127.39 MB

 CPU Time for PNO_LCCSD(it):       207.33 sec. Elapsed time:   250.67 sec. Memory usage:    18.78 MW (max).

 Selecting triples using THRCLOSE_T_PRE = 0.100E-03, THRWEAK_T_PRE = 0.000E+00, TRIPTYP = 2
 Selected 546 of 546 triples

 DF domains for (T) with RDFDOM_T: .0, IDFDOM_T: 0

 Options for (T) corrections
   Post (T0) method -  (T1): F, iterative (T): T
   Iterative (T) - THRCONV_TRIP: 0.100E-05, SKIP_TIJKW: F, THRFINT_EN: 0.100E-03
   Triple-specific virtuals - TNO
   PNO thresholds - (T0): 0.100E-08, post (T0): 0.100E-06
   LMO domains - MODOM_T0: 2
   Technical settings - TITER_DYNAMIC: F, USE_SOSV: F


 Triple PAO domain sizes: 414 (maximum), 403.6 (average) 404.3 (average, cubed)
 Triple OSV domain sizes: 605 (maximum), 411.0 (average) 429.6 (average, cubed)
 Triple PNO domain sizes: 208 (maximum), 148.2 (average) 152.6 (average, cubed)
 Triple PNO (iterations) domain sizes: 114 (maximum), 80.9 (average) 82.9 (average, cubed)

 Estimated GA usage of (T) amplitudes 329.49 MW


                                         Large domain       Small domain       Domain corr.
  Triples [T0] contribution            -0.061631089662    -0.060422862175    -0.001208227487
  Triples (T0) contribution            -0.059200138292    -0.058005227969    -0.001194910323

  PNO-LCCSD(T0) corr. energy           -1.032439066183
  PNO-LCCSD(T0) total energy         -194.169761139954


 Screening triples with THRTRIP_IT = 0.100E-06
 546 out of 546 ( 100.00%) triples survived for the iterations

 ITER.   [T] ENERGY    ENERGY CHANGE    TIME
    0    -0.06042286     0.00000000     0.00
    1    -0.06286530    -0.00244243   197.54
    2    -0.06341555    -0.00055025   396.85
    3    -0.06346843    -0.00005288   594.32
    4    -0.06348608    -0.00001765   796.05
    5    -0.06348817    -0.00000209   994.62
    6    -0.06348915    -0.00000098  1191.03

 Convergence reached


                                         Small domain        Corrected
  Triples [T] contribution             -0.063489151694    -0.064697379181
  Triples (T) contribution             -0.060841438928    -0.062036349251

  PNO-LCCSD(T) corr. energy            -1.035275277141
 !PNO-LCCSD(T) total energy          -194.172597350913


 GA_Put processed 2331.20 MW globally, average elapsed time per process: 9.20 sec
 GA_Get processed 115251.66 MW globally, average elapsed time per process: 221.35 sec

 REMARK: Memory usage printed may not be correct.
 CPU Time for PNO-LCCSD(T)(tot):  2722.62 sec. Elapsed time:  2912.42 sec. Memory usage:    26.38 MW (max).

 Direct file usage                  15.87 MB (local),           15.87 MB (max),             15.87 MB (tot)

 Max. memory usage (overall):       26.38 MW (local),           26.38 MW (max),             26.38 MW (tot)
 Max. GA usage (overall):            0.00 MW (local),            0.00 MW (max),              0.00 MW (tot)
 Max. memory+GA usage:              26.38 MW (local),           26.38 MW (max),             26.38 MW (tot)


 **********************************************************************************************************************************
 DATASETS  * FILE   NREC   LENGTH (MB)   RECORD NAMES
              1      19       36.48       500      610      700      900      950      970     1000      129      960     1100   
                                          VAR    BASINP    GEOM    SYMINP    ZMAT    AOBASIS   BASIS     P2S    ABASIS      S 
                                         1400     1410     1200     1210     1080     1600     1650     1700      960(1)
                                           T        V       H0       H01     AOSYM     SMH    MOLCAS    OPER    ABASIS    

              2       4        7.14       700     1000      520     2100   
                                         GEOM     BASIS   MCVARS     RHF  

 PROGRAMS   *        TOTAL  LCCSD(T)     DF-HF       INT
 CPU TIMES  *      2790.09   2746.67     42.84      0.44
 REAL TIME  *      2986.12 SEC
 DISK USED  *       225.50 MB
 **********************************************************************************************************************************

 PNO-LCCSD(T)/aug-cc-pVTZ energy=   -194.172597350913

    PNO-LCCSD(T)           DF-HF
   -194.17259735   -193.13732207
 **********************************************************************************************************************************
 Molpro calculation terminated
