
 Primary working directories    : /var/tmp/pbs.368321.bp1/molpro.JJyqLbeWFb
 Secondary working directories  : /var/tmp/pbs.368321.bp1/molpro.JJyqLbeWFb
 Wavefunction directory         : /home/lb17101/molpro_test/inp/lowmem/
 Main file repository           : /home/lb17101/molpro_test/inp/lowmem/

 id        : uob

 Nodes                         nprocs
 bp1-01-08-02.data.bp.acrc.priv    1

 Using customized tuning parameters: mindgm=1; mindgv=20; mindgc=4; mindgr=1; noblas=0; minvec=7
 default implementation of scratch files=df  


 Variables initialized (934), CPU time= 0.01 sec
 geomtyp=xyz
 nosym
 noorient
 geometry={
  C       1.209494486838      -0.594067637273      -0.220944498536
  C       0.649649662390       0.764586301374       0.281690590359
  C      -0.256771071411       1.777418475686       0.145602462862
  C      -1.248330897646      -0.537389786425      -0.272322111079
  C      -0.062008111284      -0.709580046645       0.590899991165
  H       1.285472312426      -1.533566758604      -1.009376329180
  H       1.776096789214      -1.029306706313       0.727379072851
  H       1.267584276295       1.613410265834       0.915664072665
  H       0.730982669444       3.140024504149      -0.886177905847
  H      -1.492092542948       0.658005224943       0.041440526366
  H      -2.139951671765      -0.840038056673       0.548309002421
  H      -0.765018983945      -1.058536989353      -1.214271932322
  H       0.382116264486      -2.322384567122       0.660364934896
 }
 basis=avtz
 df-hf
 pno-lccsd(t),domopt=tight
 Commands  initialized (763), CPU time= 0.01 sec, 617 directives.
 Default parameters read. Elapsed time= 0.08 sec

 Checking input...
 Passed
1


                                         ***  PROGRAM SYSTEM MOLPRO  ***
                                       Copyright, TTI GmbH Stuttgart, 2015
                                    Version 2019.2 linked Oct 25 2019 22:50:27


 **********************************************************************************************************************************
 LABEL *                                                                                 
  64 bit serial version                                                                  DATE: 22-Sep-20          TIME: 22:03:23  
 **********************************************************************************************************************************

 SHA1:             8dbd9ae1082e4ce945b0f27595c9eb2d4aa09004
 **********************************************************************************************************************************
 SETTING GEOMTYP        =    XYZ

 Variable memory set to 1024000000 words,  buffer space 

 ZSYMEL=NOSYM

 SETTING BASIS          =    AVTZ


 Recomputing integrals since basis changed


 Using spherical harmonics

 Library entry C      S aug-cc-pVTZ          selected for orbital group  1
 Library entry C      P aug-cc-pVTZ          selected for orbital group  1
 Library entry C      D aug-cc-pVTZ          selected for orbital group  1
 Library entry C      F aug-cc-pVTZ          selected for orbital group  1
 Library entry H      S aug-cc-pVTZ          selected for orbital group  2
 Library entry H      P aug-cc-pVTZ          selected for orbital group  2
 Library entry H      D aug-cc-pVTZ          selected for orbital group  2


 PROGRAM * SEWARD (Integral evaluation for generally contracted gaussian basis sets)     Author: Roland Lindh, 1990

 Geometry written to block  1 of record 700


 Point group  C1  



 ATOMIC COORDINATES

 NR  ATOM    CHARGE       X              Y              Z

   1  C       6.00    2.285613329   -1.122625134   -0.417524591
   2  C       6.00    1.227659939    1.444858708    0.532318068
   3  C       6.00   -0.485227002    3.358834128    0.275148778
   4  C       6.00   -2.359003509   -1.015519518   -0.514614208
   5  C       6.00   -0.117178348   -1.340911952    1.116639150
   6  H       1.00    2.429190611   -2.898021167   -1.907444819
   7  H       1.00    3.356336502   -1.945107773    1.374547236
   8  H       1.00    2.395387122    3.048903529    1.730354319
   9  H       1.00    1.381357047    5.933786337   -1.674633540
  10  H       1.00   -2.819646259    1.243449664    0.078311245
  11  H       1.00   -4.043922579   -1.587441861    1.036153846
  12  H       1.00   -1.445676360   -2.000345003   -2.294641393
  13  H       1.00    0.722095088   -4.388670788    1.247908869

 Bond lengths in Bohr (Angstrom)

 1-2  2.934866220  1-5  2.859145915  1-6  2.322177383  1-7  2.243757393  2-3  2.581360033
     ( 1.553064321)     ( 1.512994861)     ( 1.228843351)     ( 1.187345279)     ( 1.365996903)

  2- 5  3.148100906   2- 8  2.317722464   4- 5  2.791531445   4-10  2.380481905   4-11  2.360281550
       ( 1.665903257)       ( 1.226485909)       ( 1.477214824)       ( 1.259696775)       ( 1.249007208)

  4-12  2.229920289
       ( 1.180022999)

 Bond angles

  1-2-3  148.82616300   1-2-5   55.93934402   1-2-8  126.23636556   1-5-2   58.25359931

  1-5-4  110.63691379   2-1-5   65.80705667   2-1-6  153.99722783   2-1-7  103.54503317

  2-5-4   97.55380009   3-2-5  113.02588933   3-2-8   82.68447689   5-1-6  109.74672873

  5- 1- 7   86.81756611   5- 2- 8  137.02995126   5- 4-10   96.91900515   5- 4-11   99.27113285

  5- 4-12   94.93685723   6- 1- 7  101.69412311  10- 4-11   85.87991455  10- 4-12  134.20121027

 11- 4-12  135.22174186

 NUCLEAR CHARGE:                   38
 NUMBER OF PRIMITIVE AOS:         551
 NUMBER OF SYMMETRY AOS:          490
 NUMBER OF CONTRACTIONS:          414   (  414A   )
 NUMBER OF CORE ORBITALS:           5   (    5A   )
 NUMBER OF VALENCE ORBITALS:       28   (   28A   )


 NUCLEAR REPULSION ENERGY  163.11744367


 Eigenvalues of metric

         1 0.800E-05 0.121E-04 0.136E-04 0.158E-04 0.192E-04 0.266E-04 0.318E-04 0.343E-04


 OPERATOR DM      FOR CENTER  0  COORDINATES:    0.000000    0.000000    0.000000


 **********************************************************************************************************************************
 DATASETS  * FILE   NREC   LENGTH (MB)   RECORD NAMES
              1      18       36.46       500      610      700      900      950      970     1000      129      960     1100   
                                          VAR    BASINP    GEOM    SYMINP    ZMAT    AOBASIS   BASIS     P2S    ABASIS      S 
                                         1400     1410     1200     1210     1080     1600     1650     1700   
                                           T        V       H0       H01     AOSYM     SMH    MOLCAS    OPER   

 PROGRAMS   *        TOTAL       INT
 CPU TIMES  *         0.57      0.44
 REAL TIME  *         1.60 SEC
 DISK USED  *        37.06 MB
 **********************************************************************************************************************************


 PROGRAM * RHF-SCF (CLOSED SHELL)       Authors: W. Meyer, H.-J. Werner


 NUMBER OF ELECTRONS:      19+   19-    SPACE SYMMETRY=1    SPIN SYMMETRY: Singlet 
 CONVERGENCE THRESHOLDS:    1.00E-05 (Density)    1.00E-07 (Energy)
 INTEGRAL THRESHOLDS:       1.00E-11 (Initial)    1.00E-11 (Final)
 MAX. NUMBER OF ITERATIONS:       60
 INTERPOLATION TYPE:            DIIS
 INTERPOLATION STEPS:              2 (START)      1 (STEP)
 LEVEL SHIFTS:                  0.00 (CLOSED)  0.00 (OPEN) 




 Basis set AUG-CC-PVTZ/JKFIT generated.  Number of basis functions:   888 

 Orbital guess generated from atomic densities. Full valence occupancy:   33
 Using density fitting in orbital guess

 Coulomb and exchange fitting
 Thresholds for fitting:       THRAO_COUL= 1.0D-14    THRAO_EXCH= 1.0D-12    THRMO= 1.0D-11    THRPROD= 1.0D-11    THRASM= 1.0D-11
                               THR2HLF=    1.0D-11

 Molecular orbital dump at record        2100.2

 Initial occupancy:  19

 ITERATION   DDIFF            GRAD            ENERGY        2-EL.EN.            DIPOLE MOMENTS         DIIS   CPU(IT)  CPU(TOT)  ORB.
    1      0.000D+00      0.000D+00      -193.27458443    453.830302    1.37686   -1.06876   -0.11027    0      3.0      6.4     start
    2      0.000D+00      0.231D-02      -193.34098865    448.058923    0.20047   -0.93684    0.12983    1      3.0      9.4     diag
    3      0.333D-02      0.138D-02      -193.35836457    451.701552    0.69024   -0.81777   -0.07114    2      3.0     12.4     diag
    4      0.132D-02      0.518D-03      -193.36350645    450.558538    0.52920   -0.87789    0.04853    3      3.0     15.4     diag
    5      0.724D-03      0.170D-03      -193.36412047    450.631531    0.50474   -0.85208    0.00972    4      3.0     18.4     diag
    6      0.248D-03      0.710D-04      -193.36426591    450.601651    0.50196   -0.85282    0.02841    5      3.0     21.4     diag
    7      0.142D-03      0.228D-04      -193.36428275    450.600658    0.49788   -0.85289    0.02778    6      3.0     24.4     diag
    8      0.443D-04      0.933D-05      -193.36428598    450.599445    0.49769   -0.85338    0.02880    7      3.0     27.5     diag
    9      0.216D-04      0.394D-05      -193.36428651    450.599263    0.49650   -0.85262    0.02964    8      3.0     30.5     diag
   10      0.754D-05      0.178D-05      -193.36428662    450.598748    0.49636   -0.85322    0.02960    9      3.1     33.5     orth
   11      0.422D-05      0.580D-06      -193.36428664    450.598495    0.49626   -0.85322    0.02974    9      3.0     36.5     diag
   12      0.147D-05      0.200D-06      -193.36428664    450.598757    0.49625   -0.85326    0.02972    0      2.9     39.4     orth

 Final occupancy:  19

 !RHF STATE  1.1 Energy              -193.364286638019
 Nuclear energy                       163.11744367
 One-electron energy                 -581.78110868
 Two-electron energy                  225.29937838
 Virial quotient                       -1.00633299
 !RHF STATE  1.1 Dipole moment          0.49624510    -0.85326427     0.02972485
 Dipole moment /Debye                   1.26124661    -2.16863939     0.07554809

 Orbital energies:

         1.1          2.1          3.1          4.1          5.1          6.1          7.1          8.1          9.1         10.1
    -11.357992   -11.339336   -11.303368   -11.302274   -11.271995    -1.195126    -1.029058    -0.961995    -0.735170    -0.677006

        11.1         12.1         13.1         14.1         15.1         16.1         17.1         18.1         19.1         20.1
     -0.655899    -0.648536    -0.558297    -0.507186    -0.489210    -0.459655    -0.411609    -0.365596    -0.321868    -0.002720

        21.1
      0.026825


 HOMO     19.1    -0.321868 =      -8.7585eV
 LUMO     20.1    -0.002720 =      -0.0740eV
 LUMO-HOMO         0.319148 =       8.6845eV


 **********************************************************************************************************************************
 DATASETS  * FILE   NREC   LENGTH (MB)   RECORD NAMES
              1      18       36.46       500      610      700      900      950      970     1000      129      960     1100   
                                          VAR    BASINP    GEOM    SYMINP    ZMAT    AOBASIS   BASIS     P2S    ABASIS      S 
                                         1400     1410     1200     1210     1080     1600     1650     1700   
                                           T        V       H0       H01     AOSYM     SMH    MOLCAS    OPER   

              2       4        7.14       700     1000      520     2100   
                                         GEOM     BASIS   MCVARS     RHF  

 PROGRAMS   *        TOTAL     DF-HF       INT
 CPU TIMES  *        40.05     39.47      0.44
 REAL TIME  *        44.59 SEC
 DISK USED  *       141.85 MB
 **********************************************************************************************************************************


 World communicator: rank 0, size 1
 Shared-memory communicator: rank 0, size 1
 Current node: rank 0, 1 node(s) in total

 Restoring occupations from record    2100.2

 Program * PNO-LCCSD(T)   Authors:   H.-J. Werner (2012), M. Schwilk, Q. Ma (2016)

 Number of core orbitals:           5
 Number of closed-shell orbitals:  14
 Number of open-shell orbitals:     0
 Number of valence orbitals:       14
 Number of external orbitals:     395

 Basis set AUG-CC-PVTZ/MP2FIT generated. Number of basis functions:   898 

 USING TIGHT DOMAIN OPTIONS: THRLMO=0.20  IEXT=3  THROSV=  1.0D-10
                             THRPNO_LMP2=1.0D-08  THREN_LMP2=0.997
                             THRPNO_CC=  1.0D-08  THREN_CC=  0.997
                             THRTNO_T0=  1.0D-10  THRTNO_T=1.0D-07

 iclose= 0  iweak= 0  rclose= 0.00  rweak= 0.00  thrclos= 1.0D-04  thrweak= 1.0D-05  open-shell=F

 Use_GA=T  Use_PAO=T  PAO_pairdom=F  PAO_trans=T  LOCFIT= 1  LOCRI=F  EIJDIP=2  PROJECT_K=T

 Threshold for small PAO norm:    0.00D+00
 Threshold for redundancy check:  1.00D-06

 OPTIONS FOR CCSD:   method= LCCSD     icepa= -1  icepac=-1  icepaw= 2  keepcls=1  maxcls=1  maxclt=2  maxwkt=2  do_mp2w=F
                     project_k=T    project_j=ALL    idexp4_close=0

 OPTIONS FOR SINGLES IN CCSD:   isexp4=  1  isexp5= 0  isexp6= 0  project_je=T  project_s=WEAK
                                includeGE= 1  includeKEKJ= 1  includeJEKJ= 0  includeJ= 2  undress=T  project_ke=2

 Molecular orbitals read from record     2100.2  Type=RHF/CANONICAL (state 1.1)
 Orbital energies read from record       2100.2  Type=RHF/CANONICAL (state 1.1)
 Fock matrix read from record            2100.2  Type=RHF/TOTAL (state 1.1)

  Reference energy                   -193.364286638019


 Computing intrinsic bond orbitals
 =================================

 Basis set MINAO-AUTO-PP generated.      Number of basis functions:   33 

 Polarized AO type:                A = (O Ot + (1-O)(1-Ot)) P12
 Orthogonalization method:         Symmetric (Loewdin)
 Localization functional:          L = sum[A,i] <i|n_A|i>^4 -> max

 Localization group 1:  14 orbitals, occupancy  2.000
 Iterative localization: IB/PM,   18 iter; Final gradient 0.59E-08

 Summary of localized orbital composition:   [THRPRINT= 0.020]

   ORB  GRP  ORB.ENERGY      CENTERS/CHARGES
     6   1    -0.923557      C  2   1.026   C  3   0.965
     7   1    -0.770129      C  5   1.009   C  4   0.978
     8   1    -0.729338      C  1   1.000   C  5   0.943   C  2   0.032   (other: 0.026)
     9   1    -0.728079      C  2   1.035   C  1   0.910   C  3   0.030   (other: 0.025)
    10   1    -0.681605      C  2   1.047   H  8   0.767   C  3   0.178
    11   1    -0.665348      C  1   1.138   H  6   0.849
    12   1    -0.660342      C  4   1.132   H 12   0.853
    13   1    -0.638443      C  1   1.119   H  7   0.847   (other: 0.034)
    14   1    -0.619690      C  4   1.088   H 10   0.801   C  3   0.066   (other: 0.045)
    15   1    -0.594461      C  4   1.102   H 11   0.869   (other: 0.029)
    16   1    -0.586646      C  5   1.089   C  2   0.808   C  3   0.032   H  9   0.027   H  6   0.022   (other: 0.022)
    17   1    -0.545850      C  3   1.904   H 10   0.036   C  4   0.020   (other: 0.040)
    18   1    -0.477476      H 13   0.971   C  5   0.953   C  2   0.030   (other: 0.046)
    19   1    -0.395247      H  9   1.077   C  3   0.801   C  2   0.055   C  5   0.034   (other: 0.033)

 CPU Time for LMOs:                  0.06 sec. Elapsed time:     0.08 sec. Memory usage:     0.69 MW (max).
 CPU Time for PAOs:                  0.01 sec. Elapsed time:     0.01 sec. Memory usage:     0.87 MW (max).

 Distance criteria for pair classes:       RCLOSE= 0.0  RWEAK= 0.0  RDIST= 0.0  RVDIST=-1.0
 Connectivity criteria for pair classes:   ICLOSE=   0  IWEAK=   0  IDIST=   0  IVDIST=  -1

 Augmenting orbital domains by 3 shell(s) of neighboring atoms.  Minimum radius:     7.00
 Augmenting DF domains by 3 shell(s) of neighboring atoms.  Minimum radius:          7.00

 Generating LMO domains. Method=COEFF  Threshold=1.00D-06

 Fitting truncated LMOs to exact LMOs

 Minimum LMO domain size:                414
 Maximum LMO domain size:                414
 Average LMO domain size:              414.0   (sparsity   0.00 %)

 CPU time for Fitlmo:                   0.00 sec.

 PAO orbital domain sizes:   391 (min),  414 (max),  399.2 (average)
 DF  orbital domain sizes:   852 (min),  898 (max),  868.4 (average)

 CPU Time for Domains:               0.00 sec. Elapsed time:     0.01 sec. Memory usage:     0.34 MW (max).

 Number of residual matrices on current processor:       14
 Number of amplitude matrices on current processor:     105

 Fitting basis AUG-CC-PVTZ-MP2F loaded

 Threshold for block screening:     1.00D-05
 Threshold for integral screening:  1.00D-10

 CPU time for create_blocked_AO basis:                 0.03 sec, 414 functions, 18 blocks.
 CPU time for create_blocked_DF basis:                 0.06 sec, 898 functions, 31 blocks.

 Fitting basis center dimensions: min=   46, max=  106, average= 69.08
 Fitting basis block dimensions:  min=  12, max=  36, average= 28.97

 CPU time for project LMOs:                                    0.00 sec.
 CPU time for project PAOs:                                    0.00 sec.

 Screening PAOs with threshold      1.00D-06

 Minimum PAO vector length:              414
 Maximum PAO vector length:              414
 Average PAO vector length:            414.0  (sparsity  0.00 %)

 CPU time for cut/fit of PAO vectors:                          0.00 sec.

 CPU Time for Block_basis:           0.09 sec. Elapsed time:     0.09 sec. Memory usage:     0.38 MW (max).
 CPU Time for Orbitals(tot):         0.16 sec. Elapsed time:     0.19 sec. Memory usage:     0.38 MW (max).
 CPU Time for PAO integrals:         3.69 sec. Elapsed time:     3.76 sec. Memory usage:     4.57 MW (max).
 CPU Time for PAO integrals:         0.00 sec. Elapsed time:     0.00 sec. Memory usage:     2.61 MW (max).
 CPU Time for PAO amplitudes:        0.90 sec. Elapsed time:     0.90 sec. Memory usage:     5.28 MW (max).

 Generating OSVs using PAO(PERT) amplitudes, throsv= 1.0D-10

 Minimum OSV orbital domain size:        158
 Maximum OSV orbital domain size:        286
 Average OSV orbital domain size:      215.0

 CPU Time for OSV_generate:          0.33 sec. Elapsed time:     0.34 sec. Memory usage:     4.33 MW (max).

 Computing distant pair energies using multipole approximation up to order   3

 CPU time for computing multipole integrals (PAO/LMO):         0.41 sec
 CPU time for transforming integrals to OSV domains:           0.01 sec
 CPU time for distant pair energies:                           0.69 sec

 Distant pairs selected using the multipole order 3,  thrdist=1.0D-06  thrvdist=1.0D-07

 Semi-canonical distant pair energies, multipole-orders 1-3    0.00000000  0.00000000  0.00000000


 CPU Time for osv_mltp:              0.68 sec. Elapsed time:     0.70 sec. Memory usage:     1.58 MW (max).

 Number of strong pairs:                 105
 Number of close pairs:                    0
 Number of weak pairs:                     0
 Number of distant pairs:                  0  (treated by iterative multipole approximation, thrdist= 1.0D-06)
 Number of very distant pairs:             0  (treated by non-iterative multipole approximation, thrvdist= 1.0D-07)
 Total number of pairs in LMP2:          105

 Number of pairs per orbital (min, max, average):

 Strong pairs:              14    14    14.0
 Close pairs:                0     0     0.0
 Weak  pairs:                0     0     0.0
 Distant  pairs:             0     0     0.0
 Very distant pairs:         0     0     0.0

 CPU Time for Distribute_pairs:      0.00 sec. Elapsed time:     0.00 sec. Memory usage:     1.58 MW (max).

 Number of residual matrices on current processor:      105
 Number of amplitude matrices on current processor:     105

 Minimum OSV pair domain size:           158
 Maximum OSV pair domain size:           552
 Average OSV pair domain size:         401.3
 Total number of OSVs:                  3010
 Total number of OSV amplitudes:    17725458

 CPU Time for OSV_pairdom:           6.88 sec. Elapsed time:     7.06 sec. Memory usage:    17.30 MW (max).
 CPU Time for OSV integrals:         7.19 sec. Elapsed time:     7.75 sec. Memory usage:    34.07 MW (max).
 CPU Time for OSV_smatrix:           0.25 sec. Elapsed time:     0.29 sec. Memory usage:    31.28 MW (max).

 nosvmx= 552  nosvt= 3010  lens=         0  lenr=  13984946  lent=  17725458  leng=  17725458  lenw=  15716053  lenosv=    304704

 Generating PNOs using OSV(SC) amplitudes, THRPNO_EN=0.9970,  THRPNO_OCC=1.0D-08,  KEEP_DIAG=T  THRPNO_DIAG=0.0D+00

 Generating PNOs for LCCSD with thresholds: THREN_CC:  0.99700, THRPNO_CC:1.0D-08

                                                PNO-LMP2     PNO_LCCSD
 Minimum PNO domain size:                            75            75
 Maximum PNO domain size:                           154           154
 Average PNO domain size:                         111.9         111.9
 Total number of PNOs:                            11746         11746
 Total number of PNO amplitudes:                1340376
 Local number of PNO amplitudes:                1340376
 Length of local PNO residual:                  1340376
 Length of local W-matrix:                      4816067

 Semi-canonical OSV correlation energy:     -0.89483190
 Semi-canonical PNO correlation energies:   -0.89458431   -0.89458431

 Semi-canonical domain correction:          -0.00024758   -0.00024758

 CPU Time for PNO_generate:          4.00 sec. Elapsed time:     4.10 sec. Memory usage:    33.26 MW (max).

 Local length of PNO overlap matrix for PNO-LMP2:   16286039  Number of blocks:    1274  number of pairs   105

 GA space for pno_smat:             16.29 MW (tot),             16.29 MW (min),             16.29 MW (max), using processor specific storage

 CPU Time for READ_OSV_SBUF:         0.01 sec. Elapsed time:     0.01 sec. Memory usage:     8.97 MW (max).
 CPU Time for PNO_SMAT:              1.85 sec. Elapsed time:     1.97 sec. Memory usage:     8.91 MW (max).

 Denominator shift:          0.2000

 ITER.      SQ.NORM     CORR.ENERGY   TOTAL ENERGY   ENERGY CHANGE     VAR    DIIS
   1      0.34108361    -0.91179979  -194.27608643    -0.91179979  0.42D-02   1  1
   2      0.36003504    -0.92431491  -194.28860155    -0.01251512  0.27D-03   2  2
   3      0.37576160    -0.92510698  -194.28939361    -0.00079206  0.16D-04   3  3
   4      0.37803864    -0.92514408  -194.28943071    -0.00003710  0.13D-05   4  4
   5      0.37809578    -0.92514730  -194.28943394    -0.00000323  0.73D-07   5  5
   6      0.37805438    -0.92514748  -194.28943412    -0.00000018  0.39D-08   6  6

                                            PNO-LMP2        PNO-LMP2_CORR
  PNO-LMP2 correlation energy          -0.925147479756    -0.925395063906
 !PNO-LMP2 total energy              -194.289434117775  -194.289681701925

 CPU Time for PNO-LMP2:              2.55 sec. Elapsed time:     3.48 sec. Memory usage:     9.32 MW (max).

 PNO-LMP2 energy contributions
 =============================

                            OSV-LMP2(SC)     PNO-LMP2    PNO-SCS-LMP2   %(PNO/OSV)  AVDOM(PNO)
 Strong pair energy:        -0.89483190    -0.92514748    -0.92286271     103.39      111.9
 Close pair energy:          0.00000000     0.00000000     0.00000000       0.00        0.0
 Weak pair energy :          0.00000000     0.00000000     0.00000000       0.00        0.0
 Distant pair energy:        0.00000000     0.00000000     0.00000000       0.00        0.0
 Total correl. energy:      -0.89483190    -0.92514748    -0.92286271     103.39      111.9

 GA space for pno_smat:             16.29 MW (tot),             16.29 MW (min),             16.29 MW (max), using processor specific storage

 CPU Time for READ_OSV_SBUF:         0.01 sec. Elapsed time:     0.06 sec. Memory usage:     9.27 MW (max).
 CPU Time for PNO_SMAT:              1.90 sec. Elapsed time:     2.07 sec. Memory usage:     9.21 MW (max).

 Denominator shift:          0.2000

 ITER.      SQ.NORM     CORR.ENERGY   TOTAL ENERGY   ENERGY CHANGE     VAR    DIIS
   1      0.37805889    -0.92514749  -194.28943413    -0.92514749  0.57D-09   1  1
   2      0.37805800    -0.92514749  -194.28943413    -0.00000000  0.84D-10   2  2

 LMP2 results with LCCSD domains:
 ================================
                                            PNO-LMP2        PNO-LMP2_CORR
  PNO-LMP2 correlation energy          -0.925147491074    -0.925395063906
  PNO-LMP2 total energy              -194.289434129093  -194.289681701925

  PNO-LMP2 domain correction           -0.000247572832

 CPU Time for PNO-LMP2(tot):        31.10 sec. Elapsed time:    33.51 sec. Memory usage:    41.96 MW (max).

 Energy thresholds for pair classes:  THRCLOSE=1.00D-04  THRWEAK= 1.00D-05  THRDISTC=0.00D+00

 Strong and close pairs optimized in LCCSD, close pair residuals are approximated (keepcls=1).

 Number of optimized pairs:         105
 Number of strong pairs:            105
 Number of close pairs:               0
 Number of weak pairs:                0
 Total number of pairs:             105

 Length of pair-specific S-blocks:   285.39 MW,  length of unique S-blocks    68.31 MW

 CPU Time for LCC_opdom:             0.03 sec. Elapsed time:     0.03 sec. Memory usage:     0.50 MW (max).
 CPU Time for LCC_float:             0.00 sec. Elapsed time:     0.00 sec. Memory usage:     0.38 MW (max).

 CPU Time for LCC_opdom:             0.02 sec. Elapsed time:     0.03 sec. Memory usage:     0.50 MW (max).
 CPU Time for LCC_load:              0.03 sec. Elapsed time:     0.02 sec. Memory usage:     7.87 MW (max).

 Estimated GA usage of PNO-LCCSD integrals:                      0.00 MW
 Maximum GA usage after allocating GAs for CCSD integrals:       0.00 MW

 CPU Time for CCSD integrals:      591.13 sec. Elapsed time:   845.85 sec. Memory usage:    45.25 MW (max).

 GA space for pno_smat:             68.31 MW (tot),             68.31 MW (min),             68.31 MW (max), using node specific storage
 CPU Time for OSV_SMAT_LCC:          0.29 sec. Elapsed time:     0.31 sec. Memory usage:    51.07 MW (max).
 CPU Time for READ_OSV_SBUF:         0.00 sec. Elapsed time:     0.00 sec. Memory usage:    51.07 MW (max).
 CPU Time for PNO_SMAT_LCC:          7.74 sec. Elapsed time:     8.74 sec. Memory usage:    46.29 MW (max).

 Current GA usage:                   0.00 MW.  Maximum GA usage up to this point:            0.00 MW

 Solving PNO-LCCSD equations

 K-Operators in non-linear terms are projected

 Close pairs are approximated (keepcls=1, max_ijkl=0, skip_ijkl=0, maxik=0)

 Weak pairs pairs are treated by CEPA(2)

 Denominator shifts:     0.15 (singles),  0.20 (doubles)

 ITER.      SQ.NORM     CORR.ENERGY   TOTAL ENERGY   ENERGY CHANGE     VAR        VART1     DIIS     TIME
    1     0.38721126    -0.91997922  -194.28426585     0.00516827    0.74D-02    0.92D-02   1  1    86.56
    2     0.40191357    -0.95918985  -194.32347649    -0.03921063    0.20D-02    0.34D-03   2  2   169.59
    3     0.46110271    -0.96400689  -194.32829352    -0.00481704    0.35D-03    0.26D-03   3  3   252.16
    4     0.48698929    -0.96572891  -194.33001555    -0.00172202    0.79D-04    0.40D-04   4  4   333.72
    5     0.49736432    -0.96627579  -194.33056243    -0.00054688    0.16D-04    0.12D-04   5  5   414.59
    6     0.50164801    -0.96637287  -194.33065951    -0.00009708    0.30D-05    0.30D-05   6  6   494.62
    7     0.50349127    -0.96642069  -194.33070733    -0.00004782    0.66D-06    0.85D-06   7  7   573.51
    8     0.50397905    -0.96643742  -194.33072406    -0.00001672    0.17D-06    0.35D-06   8  8   657.02
    9     0.50409090    -0.96644601  -194.33073265    -0.00000859    0.51D-07    0.11D-06   1  8   739.67
   10     0.50417005    -0.96644990  -194.33073653    -0.00000389    0.14D-07    0.32D-07   2  8   820.33
   11     0.50417339    -0.96645245  -194.33073909    -0.00000255    0.38D-08    0.73D-08   3  8   906.68
   12     0.50418102    -0.96645201  -194.33073864     0.00000044    0.11D-08    0.29D-08   4  8   989.78

 Convergence reached

  T1 diagnostic   0.02156
  D1 diagnostic   0.07532
   
  Reference energy                   -193.364286638019

  Correlation contributions without domain correction:

  PNO-LCCSD singles energy              0.000648976294
  PNO-LCCSD strong pair energy         -0.967100982636
  PNO-LCCSD close pair energy           0.000000000000
  PNO-CEPA(2) weak pair energy          0.000000000000
  PNO-SCS-LMP2 distant pair energy      0.000000000000

  Results including domain correction:

  PNO-LMP2 correction                  -0.000247572832
  PNO-LCCSD correlation energy         -0.966699579174
 !PNO-LCCSD total energy             -194.330986217193

 Maximum stack memory usage in PNO-LCCSD iterations: 55.58 MW
 Maximum GA memory usage up to this point: .00 MW
 Maximum local disk usage in MB: 28269.18 (current)   28269.18 (maximum)   28269.18 (average)
 Maximum local disk usage per node: 28269.18 MB

 CPU Time for PNO_LCCSD(it):       711.41 sec. Elapsed time:   989.83 sec. Memory usage:    46.63 MW (max).

 Selecting triples using THRCLOSE_T_PRE = 0.100E-03, THRWEAK_T_PRE = 0.000E+00, TRIPTYP = 2
 Selected 546 of 546 triples

 DF domains for (T) with RDFDOM_T: .0, IDFDOM_T: 0

 Options for (T) corrections
   Post (T0) method -  (T1): F, iterative (T): T
   Iterative (T) - THRCONV_TRIP: 0.100E-05, SKIP_TIJKW: F, THRFINT_EN: 0.100E-03
   Triple-specific virtuals - TNO
   PNO thresholds - (T0): 0.100E-09, post (T0): 0.100E-06
   LMO domains - MODOM_T0: 2
   Technical settings - TITER_DYNAMIC: F, USE_SOSV: F


 Triple PAO domain sizes: 414 (maximum), 410.7 (average) 410.8 (average, cubed)
 Triple OSV domain sizes: 801 (maximum), 573.3 (average) 595.4 (average, cubed)
 Triple PNO domain sizes: 284 (maximum), 220.4 (average) 226.0 (average, cubed)
 Triple PNO (iterations) domain sizes: 108 (maximum), 80.9 (average) 82.2 (average, cubed)

 Estimated GA usage of (T) amplitudes 321.37 MW


                                         Large domain       Small domain       Domain corr.
  Triples [T0] contribution            -0.062673596006    -0.061438553076    -0.001235042930
  Triples (T0) contribution            -0.060048335968    -0.058827920028    -0.001220415940

  PNO-LCCSD(T0) corr. energy           -1.026747915141
  PNO-LCCSD(T0) total energy         -194.391034553161


 Screening triples with THRTRIP_IT = 0.100E-06
 546 out of 546 ( 100.00%) triples survived for the iterations

 ITER.   [T] ENERGY    ENERGY CHANGE    TIME
    0    -0.06143855     0.00000000     0.00
    1    -0.06367112    -0.00223257   191.36
    2    -0.06415896    -0.00048783   384.48
    3    -0.06419730    -0.00003835   581.22
    4    -0.06421098    -0.00001368   772.59
    5    -0.06421203    -0.00000105   969.84
    6    -0.06421274    -0.00000070  1165.64

 Convergence reached


                                         Small domain        Corrected
  Triples [T] contribution             -0.064212735671    -0.065447778601
  Triples (T) contribution             -0.061430165367    -0.062650581307

  PNO-LCCSD(T) corr. energy            -1.029350160481
 !PNO-LCCSD(T) total energy          -194.393636798500


 GA_Put processed 2431.66 MW globally, average elapsed time per process: 11.09 sec
 GA_Get processed 159095.53 MW globally, average elapsed time per process: 306.46 sec

 REMARK: Memory usage printed may not be correct.
 CPU Time for PNO-LCCSD(T)(tot):  4387.60 sec. Elapsed time:  5126.54 sec. Memory usage:    51.07 MW (max).

 Direct file usage                  15.87 MB (local),           15.87 MB (max),             15.87 MB (tot)

 Max. memory usage (overall):       51.07 MW (local),           51.07 MW (max),             51.07 MW (tot)
 Max. GA usage (overall):            0.00 MW (local),            0.00 MW (max),              0.00 MW (tot)
 Max. memory+GA usage:              51.07 MW (local),           51.07 MW (max),             51.07 MW (tot)


 **********************************************************************************************************************************
 DATASETS  * FILE   NREC   LENGTH (MB)   RECORD NAMES
              1      19       36.48       500      610      700      900      950      970     1000      129      960     1100   
                                          VAR    BASINP    GEOM    SYMINP    ZMAT    AOBASIS   BASIS     P2S    ABASIS      S 
                                         1400     1410     1200     1210     1080     1600     1650     1700      960(1)
                                           T        V       H0       H01     AOSYM     SMH    MOLCAS    OPER    ABASIS    

              2       4        7.14       700     1000      520     2100   
                                         GEOM     BASIS   MCVARS     RHF  

 PROGRAMS   *        TOTAL  LCCSD(T)     DF-HF       INT
 CPU TIMES  *      4458.94   4418.87     39.47      0.44
 REAL TIME  *      5204.87 SEC
 DISK USED  *       231.34 MB
 **********************************************************************************************************************************

 PNO-LCCSD(T)/aug-cc-pVTZ energy=   -194.393636798500

    PNO-LCCSD(T)           DF-HF
   -194.39363680   -193.36428664
 **********************************************************************************************************************************
 Molpro calculation terminated
