
 Primary working directories    : /var/tmp/pbs.368320.bp1/molpro.EVH12v1WKu
 Secondary working directories  : /var/tmp/pbs.368320.bp1/molpro.EVH12v1WKu
 Wavefunction directory         : /home/lb17101/molpro_test/inp/lowmem/
 Main file repository           : /home/lb17101/molpro_test/inp/lowmem/

 id        : uob

 Nodes                         nprocs
 bp1-01-03-04.data.bp.acrc.priv    1

 Using customized tuning parameters: mindgm=1; mindgv=20; mindgc=4; mindgr=1; noblas=0; minvec=7
 default implementation of scratch files=df  


 Variables initialized (934), CPU time= 0.00 sec
 geomtyp=xyz
 nosym
 noorient
 geometry={
  C       0.683292940830      -1.151274649878       0.994175574547
  C      -1.780571735091       0.708484496052      -0.232704184408
  C      -0.719937859133       0.684883534094      -1.035579452054
  C       0.676313728555       0.522621735952      -0.784766661492
  C       1.241064353654      -0.064704560192       0.165146256565
  H       1.378776656810      -2.119839124613       1.236483429484
  H      -0.515650328409      -1.410919491207       1.119043873108
  H      -2.786721585743       0.929430187014      -0.682009045450
  H      -1.852805881141       0.755742075008       0.895946013019
  H      -1.141634795983       1.124712094494      -2.072932277469
  H       1.496769619407       1.184377258145      -1.289263031469
  H       2.481631343579      -0.069077074314      -0.019931340767
  H       0.901676439970      -0.640044349858       1.986592574682
 }
 basis=avtz
 df-hf
 pno-lccsd(t),domopt=tight
 Commands  initialized (763), CPU time= 0.01 sec, 617 directives.
 Default parameters read. Elapsed time= 0.04 sec

 Checking input...
 Passed
1


                                         ***  PROGRAM SYSTEM MOLPRO  ***
                                       Copyright, TTI GmbH Stuttgart, 2015
                                    Version 2019.2 linked Oct 25 2019 22:50:27


 **********************************************************************************************************************************
 LABEL *                                                                                 
  64 bit serial version                                                                  DATE: 22-Sep-20          TIME: 22:02:53  
 **********************************************************************************************************************************

 SHA1:             8dbd9ae1082e4ce945b0f27595c9eb2d4aa09004
 **********************************************************************************************************************************
 SETTING GEOMTYP        =    XYZ

 Variable memory set to 1024000000 words,  buffer space 

 ZSYMEL=NOSYM

 SETTING BASIS          =    AVTZ


 Recomputing integrals since basis changed


 Using spherical harmonics

 Library entry C      S aug-cc-pVTZ          selected for orbital group  1
 Library entry C      P aug-cc-pVTZ          selected for orbital group  1
 Library entry C      D aug-cc-pVTZ          selected for orbital group  1
 Library entry C      F aug-cc-pVTZ          selected for orbital group  1
 Library entry H      S aug-cc-pVTZ          selected for orbital group  2
 Library entry H      P aug-cc-pVTZ          selected for orbital group  2
 Library entry H      D aug-cc-pVTZ          selected for orbital group  2


 PROGRAM * SEWARD (Integral evaluation for generally contracted gaussian basis sets)     Author: Roland Lindh, 1990

 Geometry written to block  1 of record 700


 Point group  C1  



 ATOMIC COORDINATES

 NR  ATOM    CHARGE       X              Y              Z

   1  C       6.00    1.291236521   -2.175593782    1.878719556
   2  C       6.00   -3.364792924    1.338841661   -0.439747177
   3  C       6.00   -1.360485380    1.294242307   -1.956961545
   4  C       6.00    1.278047721    0.987611948   -1.482994062
   5  C       6.00    2.345271731   -0.122273898    0.312081195
   6  H       1.00    2.605510268   -4.005915374    2.336615039
   7  H       1.00   -0.974437897   -2.666251422    2.114686442
   8  H       1.00   -5.266140582    1.756368505   -1.288810310
   9  H       1.00   -3.501295677    1.428145543    1.693092587
  10  H       1.00   -2.157377099    2.125397828   -3.917274279
  11  H       1.00    2.828484652    2.238148646   -2.436354032
  12  H       1.00    4.689603582   -0.130536752   -0.037664775
  13  H       1.00    1.703921525   -1.209508529    3.754115887

 Bond lengths in Bohr (Angstrom)

  1- 5  2.789528370   1- 6  2.299360973   1- 7  2.330172924   1-13  2.149590898   2- 3  2.514195154
       ( 1.476154842)       ( 1.216769427)       ( 1.233074409)       ( 1.137514516)       ( 1.330454779)

  2- 8  2.123760765   2- 9  2.139068405   3- 4  2.698244667   3-10  2.273473538   4- 5  2.364975445
       ( 1.123845798)       ( 1.131946253)       ( 1.427849587)       ( 1.203070386)       ( 1.251491110)

  4-11  2.208300691   5-12  2.370291615
       ( 1.168582401)       ( 1.254304306)

 Bond angles

  1- 5- 4  126.95672109   1- 5-12  117.00179194   2- 3- 4  132.49829776   2- 3-10  103.55738595

  3- 2- 8  118.42046282   3- 2- 9  130.79201195   3- 4- 5  128.89801884   3- 4-11  123.11833384

  4- 3-10  122.39599343   4- 5-12  109.63084942   5- 1- 6  118.80274787   5- 1- 7  125.39866447

  5- 1-13   94.96916716   5- 4-11  106.05827212   6- 1- 7  111.59113534   6- 1-13   94.25970806

  7- 1-13  101.12528114   8- 2- 9  109.46854259

 NUCLEAR CHARGE:                   38
 NUMBER OF PRIMITIVE AOS:         551
 NUMBER OF SYMMETRY AOS:          490
 NUMBER OF CONTRACTIONS:          414   (  414A   )
 NUMBER OF CORE ORBITALS:           5   (    5A   )
 NUMBER OF VALENCE ORBITALS:       28   (   28A   )


 NUCLEAR REPULSION ENERGY  158.36619708


 Eigenvalues of metric

         1 0.391E-05 0.581E-05 0.723E-05 0.844E-05 0.105E-04 0.139E-04 0.152E-04 0.180E-04


 OPERATOR DM      FOR CENTER  0  COORDINATES:    0.000000    0.000000    0.000000


 **********************************************************************************************************************************
 DATASETS  * FILE   NREC   LENGTH (MB)   RECORD NAMES
              1      18       36.46       500      610      700      900      950      970     1000      129      960     1100   
                                          VAR    BASINP    GEOM    SYMINP    ZMAT    AOBASIS   BASIS     P2S    ABASIS      S 
                                         1400     1410     1200     1210     1080     1600     1650     1700   
                                           T        V       H0       H01     AOSYM     SMH    MOLCAS    OPER   

 PROGRAMS   *        TOTAL       INT
 CPU TIMES  *         0.60      0.49
 REAL TIME  *         1.58 SEC
 DISK USED  *        37.06 MB
 **********************************************************************************************************************************


 PROGRAM * RHF-SCF (CLOSED SHELL)       Authors: W. Meyer, H.-J. Werner


 NUMBER OF ELECTRONS:      19+   19-    SPACE SYMMETRY=1    SPIN SYMMETRY: Singlet 
 CONVERGENCE THRESHOLDS:    1.00E-05 (Density)    1.00E-07 (Energy)
 INTEGRAL THRESHOLDS:       1.00E-12 (Initial)    1.00E-12 (Final)
 MAX. NUMBER OF ITERATIONS:       60
 INTERPOLATION TYPE:            DIIS
 INTERPOLATION STEPS:              2 (START)      1 (STEP)
 LEVEL SHIFTS:                  0.00 (CLOSED)  0.00 (OPEN) 




 Basis set AUG-CC-PVTZ/JKFIT generated.  Number of basis functions:   888 

 Orbital guess generated from atomic densities. Full valence occupancy:   33
 Using density fitting in orbital guess

 Coulomb and exchange fitting
 Thresholds for fitting:       THRAO_COUL= 1.0D-15    THRAO_EXCH= 1.0D-13    THRMO= 1.0D-12    THRPROD= 1.0D-12    THRASM= 1.0D-12
                               THR2HLF=    1.0D-12

 Molecular orbital dump at record        2100.2

 Initial occupancy:  19

 ITERATION   DDIFF            GRAD            ENERGY        2-EL.EN.            DIPOLE MOMENTS         DIIS   CPU(IT)  CPU(TOT)  ORB.
    1      0.000D+00      0.000D+00      -193.83618165    446.922884    0.27162   -0.10139    0.45447    0      3.2      6.8     start
    2      0.000D+00      0.240D-02      -193.89455343    440.950390    0.09176   -0.03023    0.13188    1      3.2     10.1     diag
    3      0.344D-02      0.108D-02      -193.90439972    443.636215    0.08384    0.01755    0.21490    2      3.2     13.2     diag
    4      0.121D-02      0.321D-03      -193.90588646    443.131692    0.07225    0.02542    0.17333    3      3.2     16.5     diag
    5      0.494D-03      0.818D-04      -193.90596303    443.139804    0.05120    0.02985    0.18582    4      3.2     19.7     diag
    6      0.115D-03      0.283D-04      -193.90597578    443.144387    0.04898    0.03286    0.17884    5      3.2     22.9     diag
    7      0.544D-04      0.784D-05      -193.90597725    443.142986    0.04623    0.03391    0.17971    6      3.3     26.2     diag
    8      0.179D-04      0.313D-05      -193.90597757    443.144664    0.04443    0.03465    0.17885    7      3.2     29.5     diag
    9      0.740D-05      0.165D-05      -193.90597764    443.144373    0.04378    0.03501    0.17866    8      3.3     32.8     diag
   10      0.387D-05      0.445D-06      -193.90597764    443.144307    0.04362    0.03506    0.17864    0      3.2     36.0     orth

 Final occupancy:  19

 !RHF STATE  1.1 Energy              -193.905977644885
 Nuclear energy                       158.36619708
 One-electron energy                 -573.84432807
 Two-electron energy                  221.57215334
 Virial quotient                       -1.00324018
 !RHF STATE  1.1 Dipole moment          0.04362282     0.03506379     0.17864434
 Dipole moment /Debye                   0.11087088     0.08911743     0.45403889

 Orbital energies:

         1.1          2.1          3.1          4.1          5.1          6.1          7.1          8.1          9.1         10.1
    -11.253639   -11.250220   -11.244920   -11.239256   -11.224752    -1.118592    -1.024496    -0.934033    -0.804446    -0.682983

        11.1         12.1         13.1         14.1         15.1         16.1         17.1         18.1         19.1         20.1
     -0.655501    -0.604599    -0.579777    -0.538980    -0.508688    -0.475553    -0.457615    -0.424415    -0.327547     0.029865

        21.1
      0.034706


 HOMO     19.1    -0.327547 =      -8.9130eV
 LUMO     20.1     0.029865 =       0.8127eV
 LUMO-HOMO         0.357411 =       9.7257eV


 **********************************************************************************************************************************
 DATASETS  * FILE   NREC   LENGTH (MB)   RECORD NAMES
              1      18       36.46       500      610      700      900      950      970     1000      129      960     1100   
                                          VAR    BASINP    GEOM    SYMINP    ZMAT    AOBASIS   BASIS     P2S    ABASIS      S 
                                         1400     1410     1200     1210     1080     1600     1650     1700   
                                           T        V       H0       H01     AOSYM     SMH    MOLCAS    OPER   

              2       4        7.14       700     1000      520     2100   
                                         GEOM     BASIS   MCVARS     RHF  

 PROGRAMS   *        TOTAL     DF-HF       INT
 CPU TIMES  *        36.62     36.02      0.49
 REAL TIME  *        39.51 SEC
 DISK USED  *       141.85 MB
 **********************************************************************************************************************************


 World communicator: rank 0, size 1
 Shared-memory communicator: rank 0, size 1
 Current node: rank 0, 1 node(s) in total

 Restoring occupations from record    2100.2

 Program * PNO-LCCSD(T)   Authors:   H.-J. Werner (2012), M. Schwilk, Q. Ma (2016)

 Number of core orbitals:           5
 Number of closed-shell orbitals:  14
 Number of open-shell orbitals:     0
 Number of valence orbitals:       14
 Number of external orbitals:     395

 Basis set AUG-CC-PVTZ/MP2FIT generated. Number of basis functions:   898 

 USING TIGHT DOMAIN OPTIONS: THRLMO=0.20  IEXT=3  THROSV=  1.0D-10
                             THRPNO_LMP2=1.0D-08  THREN_LMP2=0.997
                             THRPNO_CC=  1.0D-08  THREN_CC=  0.997
                             THRTNO_T0=  1.0D-10  THRTNO_T=1.0D-07

 iclose= 0  iweak= 0  rclose= 0.00  rweak= 0.00  thrclos= 1.0D-04  thrweak= 1.0D-05  open-shell=F

 Use_GA=T  Use_PAO=T  PAO_pairdom=F  PAO_trans=T  LOCFIT= 1  LOCRI=F  EIJDIP=2  PROJECT_K=T

 Threshold for small PAO norm:    0.00D+00
 Threshold for redundancy check:  1.00D-06

 OPTIONS FOR CCSD:   method= LCCSD     icepa= -1  icepac=-1  icepaw= 2  keepcls=1  maxcls=1  maxclt=2  maxwkt=2  do_mp2w=F
                     project_k=T    project_j=ALL    idexp4_close=0

 OPTIONS FOR SINGLES IN CCSD:   isexp4=  1  isexp5= 0  isexp6= 0  project_je=T  project_s=WEAK
                                includeGE= 1  includeKEKJ= 1  includeJEKJ= 0  includeJ= 2  undress=T  project_ke=2

 Molecular orbitals read from record     2100.2  Type=RHF/CANONICAL (state 1.1)
 Orbital energies read from record       2100.2  Type=RHF/CANONICAL (state 1.1)
 Fock matrix read from record            2100.2  Type=RHF/TOTAL (state 1.1)

  Reference energy                   -193.905977644886


 Computing intrinsic bond orbitals
 =================================

 Basis set MINAO-AUTO-PP generated.      Number of basis functions:   33 

 Polarized AO type:                A = (O Ot + (1-O)(1-Ot)) P12
 Orthogonalization method:         Symmetric (Loewdin)
 Localization functional:          L = sum[A,i] <i|n_A|i>^4 -> max

 Localization group 1:  14 orbitals, occupancy  2.000
 Iterative localization: IB/PM,    9 iter; Final gradient 0.84E-08

 Summary of localized orbital composition:   [THRPRINT= 0.020]

   ORB  GRP  ORB.ENERGY      CENTERS/CHARGES
     6   1    -0.846472      C  3   1.005   C  2   0.984
     7   1    -0.809345      C  3   1.003   C  4   0.984
     8   1    -0.787954      C  5   1.008   C  4   0.969   (other: 0.022)
     9   1    -0.766725      C  1   1.006   C  5   0.984
    10   1    -0.659789      C  2   1.129   H  9   0.864
    11   1    -0.652727      C  2   1.126   H  8   0.864
    12   1    -0.622389      C  4   1.106   H 11   0.862   (other: 0.031)
    13   1    -0.612299      C  1   1.102   H 13   0.866   C  5   0.020
    14   1    -0.611311      C  1   1.115   H  7   0.874
    15   1    -0.610934      C  3   1.098   H 10   0.873   (other: 0.029)
    16   1    -0.609300      C  1   1.104   H  6   0.880
    17   1    -0.596818      C  5   1.080   H 12   0.893   (other: 0.027)
    18   1    -0.543871      C  4   1.034   C  5   0.918   C  3   0.022   (other: 0.026)
    19   1    -0.407292      C  2   1.006   C  3   0.956   (other: 0.038)

 CPU Time for LMOs:                  0.08 sec. Elapsed time:     0.10 sec. Memory usage:     0.69 MW (max).
 CPU Time for PAOs:                  0.00 sec. Elapsed time:     0.01 sec. Memory usage:     0.87 MW (max).

 Distance criteria for pair classes:       RCLOSE= 0.0  RWEAK= 0.0  RDIST= 0.0  RVDIST=-1.0
 Connectivity criteria for pair classes:   ICLOSE=   0  IWEAK=   0  IDIST=   0  IVDIST=  -1

 Augmenting orbital domains by 3 shell(s) of neighboring atoms.  Minimum radius:     7.00
 Augmenting DF domains by 3 shell(s) of neighboring atoms.  Minimum radius:          7.00

 Generating LMO domains. Method=COEFF  Threshold=1.00D-06

 Fitting truncated LMOs to exact LMOs

 Minimum LMO domain size:                414
 Maximum LMO domain size:                414
 Average LMO domain size:              414.0   (sparsity   0.00 %)

 CPU time for Fitlmo:                   0.00 sec.

 PAO orbital domain sizes:   345 (min),  414 (max),  387.7 (average)
 DF  orbital domain sizes:   760 (min),  898 (max),  845.4 (average)

 CPU Time for Domains:               0.01 sec. Elapsed time:     0.00 sec. Memory usage:     0.34 MW (max).

 Number of residual matrices on current processor:       14
 Number of amplitude matrices on current processor:     105

 Fitting basis AUG-CC-PVTZ-MP2F loaded

 Threshold for block screening:     1.00D-05
 Threshold for integral screening:  1.00D-10

 CPU time for create_blocked_AO basis:                 0.01 sec, 414 functions, 18 blocks.
 CPU time for create_blocked_DF basis:                 0.04 sec, 898 functions, 31 blocks.

 Fitting basis center dimensions: min=   46, max=  106, average= 69.08
 Fitting basis block dimensions:  min=  12, max=  36, average= 28.97

 CPU time for project LMOs:                                    0.00 sec.
 CPU time for project PAOs:                                    0.00 sec.

 Screening PAOs with threshold      1.00D-06

 Minimum PAO vector length:              414
 Maximum PAO vector length:              414
 Average PAO vector length:            414.0  (sparsity  0.00 %)

 CPU time for cut/fit of PAO vectors:                          0.01 sec.

 CPU Time for Block_basis:           0.06 sec. Elapsed time:     0.07 sec. Memory usage:     0.38 MW (max).
 CPU Time for Orbitals(tot):         0.15 sec. Elapsed time:     0.18 sec. Memory usage:     0.38 MW (max).
 CPU Time for PAO integrals:         4.01 sec. Elapsed time:     4.18 sec. Memory usage:     4.45 MW (max).
 CPU Time for PAO integrals:         0.00 sec. Elapsed time:     0.00 sec. Memory usage:     2.49 MW (max).
 CPU Time for PAO amplitudes:        0.89 sec. Elapsed time:     0.97 sec. Memory usage:     5.04 MW (max).

 Generating OSVs using PAO(PERT) amplitudes, throsv= 1.0D-10

 Minimum OSV orbital domain size:        135
 Maximum OSV orbital domain size:        251
 Average OSV orbital domain size:      177.4

 CPU Time for OSV_generate:          0.31 sec. Elapsed time:     0.31 sec. Memory usage:     3.97 MW (max).

 Computing distant pair energies using multipole approximation up to order   3

 CPU time for computing multipole integrals (PAO/LMO):         0.46 sec
 CPU time for transforming integrals to OSV domains:           0.01 sec
 CPU time for distant pair energies:                           0.70 sec

 Distant pairs selected using the multipole order 3,  thrdist=1.0D-06  thrvdist=1.0D-07

 Semi-canonical distant pair energies, multipole-orders 1-3    0.00000000  0.00000000  0.00000000


 CPU Time for osv_mltp:              0.67 sec. Elapsed time:     0.70 sec. Memory usage:     1.35 MW (max).

 Number of strong pairs:                 105
 Number of close pairs:                    0
 Number of weak pairs:                     0
 Number of distant pairs:                  0  (treated by iterative multipole approximation, thrdist= 1.0D-06)
 Number of very distant pairs:             0  (treated by non-iterative multipole approximation, thrvdist= 1.0D-07)
 Total number of pairs in LMP2:          105

 Number of pairs per orbital (min, max, average):

 Strong pairs:              14    14    14.0
 Close pairs:                0     0     0.0
 Weak  pairs:                0     0     0.0
 Distant  pairs:             0     0     0.0
 Very distant pairs:         0     0     0.0

 CPU Time for Distribute_pairs:      0.00 sec. Elapsed time:     0.00 sec. Memory usage:     1.35 MW (max).

 Number of residual matrices on current processor:      105
 Number of amplitude matrices on current processor:     105

 Minimum OSV pair domain size:           135
 Maximum OSV pair domain size:           498
 Average OSV pair domain size:         331.2
 Total number of OSVs:                  2484
 Total number of OSV amplitudes:    12097346

 CPU Time for OSV_pairdom:           4.94 sec. Elapsed time:     5.17 sec. Memory usage:    13.07 MW (max).
 CPU Time for OSV integrals:         7.73 sec. Elapsed time:     8.03 sec. Memory usage:    27.11 MW (max).
 CPU Time for OSV_smatrix:           0.20 sec. Elapsed time:     0.24 sec. Memory usage:    24.38 MW (max).

 nosvmx= 498  nosvt= 2484  lens=         0  lenr=  11310440  lent=  12097346  leng=  12097346  lenw=  11719374  lenosv=    248004

 Generating PNOs using OSV(SC) amplitudes, THRPNO_EN=0.9970,  THRPNO_OCC=1.0D-08,  KEEP_DIAG=T  THRPNO_DIAG=0.0D+00

 Generating PNOs for LCCSD with thresholds: THREN_CC:  0.99700, THRPNO_CC:1.0D-08

                                                PNO-LMP2     PNO_LCCSD
 Minimum PNO domain size:                            59            59
 Maximum PNO domain size:                           145           145
 Average PNO domain size:                          94.8          94.8
 Total number of PNOs:                             9952          9952
 Total number of PNO amplitudes:                 966672
 Local number of PNO amplitudes:                 966672
 Length of local PNO residual:                   966672
 Length of local W-matrix:                      3356343

 Semi-canonical OSV correlation energy:     -0.82995743
 Semi-canonical PNO correlation energies:   -0.82979131   -0.82979131

 Semi-canonical domain correction:          -0.00016611   -0.00016611

 CPU Time for PNO_generate:          3.17 sec. Elapsed time:     3.25 sec. Memory usage:    25.87 MW (max).

 Local length of PNO overlap matrix for PNO-LMP2:   11603568  Number of blocks:    1274  number of pairs   105

 GA space for pno_smat:             11.60 MW (tot),             11.60 MW (min),             11.60 MW (max), using processor specific storage

 CPU Time for READ_OSV_SBUF:         0.01 sec. Elapsed time:     0.00 sec. Memory usage:     6.57 MW (max).
 CPU Time for PNO_SMAT:              1.17 sec. Elapsed time:     1.28 sec. Memory usage:     6.51 MW (max).

 Denominator shift:          0.2000

 ITER.      SQ.NORM     CORR.ENERGY   TOTAL ENERGY   ENERGY CHANGE     VAR    DIIS
   1      0.27152570    -0.84412234  -194.75009999    -0.84412234  0.22D-02   1  1
   2      0.28562336    -0.85178950  -194.75776714    -0.00766715  0.10D-03   2  2
   3      0.29393959    -0.85211911  -194.75809676    -0.00032962  0.43D-05   3  3
   4      0.29459949    -0.85213105  -194.75810869    -0.00001193  0.26D-06   4  4
   5      0.29447487    -0.85213177  -194.75810941    -0.00000072  0.10D-07   5  5
   6      0.29445928    -0.85213180  -194.75810944    -0.00000003  0.42D-09   6  6

                                            PNO-LMP2        PNO-LMP2_CORR
  PNO-LMP2 correlation energy          -0.852131797973    -0.852297912375
 !PNO-LMP2 total energy              -194.758109442860  -194.758275557262

 CPU Time for PNO-LMP2:              1.67 sec. Elapsed time:     1.89 sec. Memory usage:     6.73 MW (max).

 PNO-LMP2 energy contributions
 =============================

                            OSV-LMP2(SC)     PNO-LMP2    PNO-SCS-LMP2   %(PNO/OSV)  AVDOM(PNO)
 Strong pair energy:        -0.82995743    -0.85213180    -0.85435191     102.67       94.8
 Close pair energy:          0.00000000     0.00000000     0.00000000       0.00        0.0
 Weak pair energy :          0.00000000     0.00000000     0.00000000       0.00        0.0
 Distant pair energy:        0.00000000     0.00000000     0.00000000       0.00        0.0
 Total correl. energy:      -0.82995743    -0.85213180    -0.85435191     102.67       94.8

 GA space for pno_smat:             11.60 MW (tot),             11.60 MW (min),             11.60 MW (max), using processor specific storage

 CPU Time for READ_OSV_SBUF:         0.02 sec. Elapsed time:     0.04 sec. Memory usage:     6.82 MW (max).
 CPU Time for PNO_SMAT:              1.19 sec. Elapsed time:     1.26 sec. Memory usage:     6.76 MW (max).

 Denominator shift:          0.2000

 ITER.      SQ.NORM     CORR.ENERGY   TOTAL ENERGY   ENERGY CHANGE     VAR    DIIS
   1      0.29446236    -0.85213180  -194.75810944    -0.85213180  0.41D-10   1  1
   2      0.29446230    -0.85213180  -194.75810944    -0.00000000  0.45D-11   2  2

 LMP2 results with LCCSD domains:
 ================================
                                            PNO-LMP2        PNO-LMP2_CORR
  PNO-LMP2 correlation energy          -0.852131799229    -0.852297912375
  PNO-LMP2 total energy              -194.758109444115  -194.758275557262

  PNO-LMP2 domain correction           -0.000166113147

 CPU Time for PNO-LMP2(tot):        26.56 sec. Elapsed time:    27.95 sec. Memory usage:    32.79 MW (max).

 Energy thresholds for pair classes:  THRCLOSE=1.00D-04  THRWEAK= 1.00D-05  THRDISTC=0.00D+00

 Strong and close pairs optimized in LCCSD, close pair residuals are approximated (keepcls=1).

 Number of optimized pairs:         105
 Number of strong pairs:             98
 Number of close pairs:               7
 Number of weak pairs:                0
 Total number of pairs:             105

 Length of pair-specific S-blocks:   212.16 MW,  length of unique S-blocks    49.04 MW

 CPU Time for LCC_opdom:             0.03 sec. Elapsed time:     0.03 sec. Memory usage:     0.49 MW (max).
 CPU Time for LCC_float:             0.00 sec. Elapsed time:     0.01 sec. Memory usage:     0.38 MW (max).

 CPU Time for LCC_opdom:             0.03 sec. Elapsed time:     0.03 sec. Memory usage:     0.49 MW (max).
 CPU Time for LCC_load:              0.02 sec. Elapsed time:     0.03 sec. Memory usage:     5.79 MW (max).

 Estimated GA usage of PNO-LCCSD integrals:                      0.00 MW
 Maximum GA usage after allocating GAs for CCSD integrals:       0.00 MW

 CPU Time for CCSD integrals:      502.54 sec. Elapsed time:   550.49 sec. Memory usage:    32.69 MW (max).

 GA space for pno_smat:             49.04 MW (tot),             49.04 MW (min),             49.04 MW (max), using node specific storage
 CPU Time for OSV_SMAT_LCC:          0.20 sec. Elapsed time:     0.23 sec. Memory usage:    36.78 MW (max).
 CPU Time for READ_OSV_SBUF:         0.00 sec. Elapsed time:     0.00 sec. Memory usage:    36.78 MW (max).
 CPU Time for PNO_SMAT_LCC:          4.64 sec. Elapsed time:     5.04 sec. Memory usage:    33.53 MW (max).

 Current GA usage:                   0.00 MW.  Maximum GA usage up to this point:            0.00 MW

 Solving PNO-LCCSD equations

 K-Operators in non-linear terms are projected

 Close pairs are approximated (keepcls=1, max_ijkl=0, skip_ijkl=0, maxik=0)

 Weak pairs pairs are treated by CEPA(2)

 Denominator shifts:     0.15 (singles),  0.20 (doubles)

 ITER.      SQ.NORM     CORR.ENERGY   TOTAL ENERGY   ENERGY CHANGE     VAR        VART1     DIIS     TIME
    1     0.29764402    -0.86743259  -194.77341023    -0.01530079    0.40D-02    0.32D-02   1  1    54.33
    2     0.31685751    -0.89301173  -194.79898938    -0.02557915    0.64D-03    0.66D-04   2  2   109.57
    3     0.34342533    -0.89470656  -194.80068421    -0.00169483    0.73D-04    0.21D-04   3  3   162.54
    4     0.34939982    -0.89527180  -194.80124944    -0.00056524    0.12D-04    0.18D-05   4  4   219.04
    5     0.35083104    -0.89537277  -194.80135041    -0.00010097    0.23D-05    0.32D-06   5  5   272.64
    6     0.35147775    -0.89536997  -194.80134761     0.00000280    0.36D-06    0.51D-07   6  6   326.00
    7     0.35169149    -0.89536920  -194.80134684     0.00000077    0.51D-07    0.95D-08   7  7   378.74
    8     0.35171582    -0.89536943  -194.80134708    -0.00000023    0.75D-08    0.35D-08   8  8   443.61

 Convergence reached

  T1 diagnostic   0.01028
  D1 diagnostic   0.02825
   
  Reference energy                   -193.905977644886

  Correlation contributions without domain correction:

  PNO-LCCSD singles energy              0.000306643237
  PNO-LCCSD strong pair energy         -0.895172982008
  PNO-LCCSD close pair energy          -0.000503092434
  PNO-CEPA(2) weak pair energy          0.000000000000
  PNO-SCS-LMP2 distant pair energy      0.000000000000

  Results including domain correction:

  PNO-LMP2 correction                  -0.000166113147
  PNO-LCCSD correlation energy         -0.895535544351
 !PNO-LCCSD total energy             -194.801513189237

 Maximum stack memory usage in PNO-LCCSD iterations: 41.80 MW
 Maximum GA memory usage up to this point: .00 MW
 Maximum local disk usage in MB: 15527.49 (current)   15527.49 (maximum)   15527.49 (average)
 Maximum local disk usage per node: 15527.49 MB

 CPU Time for PNO_LCCSD(it):       325.14 sec. Elapsed time:   443.66 sec. Memory usage:    33.69 MW (max).

 Selecting triples using THRCLOSE_T_PRE = 0.100E-03, THRWEAK_T_PRE = 0.000E+00, TRIPTYP = 2
 Selected 546 of 546 triples

 DF domains for (T) with RDFDOM_T: .0, IDFDOM_T: 0

 Options for (T) corrections
   Post (T0) method -  (T1): F, iterative (T): T
   Iterative (T) - THRCONV_TRIP: 0.100E-05, SKIP_TIJKW: F, THRFINT_EN: 0.100E-03
   Triple-specific virtuals - TNO
   PNO thresholds - (T0): 0.100E-09, post (T0): 0.100E-06
   LMO domains - MODOM_T0: 2
   Technical settings - TITER_DYNAMIC: F, USE_SOSV: F


 Triple PAO domain sizes: 414 (maximum), 411.1 (average) 411.3 (average, cubed)
 Triple OSV domain sizes: 695 (maximum), 473.1 (average) 492.1 (average, cubed)
 Triple PNO domain sizes: 257 (maximum), 187.7 (average) 192.1 (average, cubed)
 Triple PNO (iterations) domain sizes: 96 (maximum), 67.2 (average) 69.3 (average, cubed)

 Estimated GA usage of (T) amplitudes 196.62 MW


                                         Large domain       Small domain       Domain corr.
  Triples [T0] contribution            -0.042782180154    -0.042015094256    -0.000767085898
  Triples (T0) contribution            -0.041811685810    -0.041050083743    -0.000761602067

  PNO-LCCSD(T0) corr. energy           -0.937347230161
  PNO-LCCSD(T0) total energy         -194.843324875047


 Screening triples with THRTRIP_IT = 0.100E-06
 546 out of 546 ( 100.00%) triples survived for the iterations

 ITER.   [T] ENERGY    ENERGY CHANGE    TIME
    0    -0.04201509     0.00000000     0.00
    1    -0.04319222    -0.00117712   104.07
    2    -0.04338814    -0.00019592   210.05
    3    -0.04340034    -0.00001221   316.09
    4    -0.04340343    -0.00000309   423.57
    5    -0.04340364    -0.00000021   543.22

 Convergence reached


                                         Small domain        Corrected
  Triples [T] contribution             -0.043403640995    -0.044170726893
  Triples (T) contribution             -0.042400388571    -0.043161990638

  PNO-LCCSD(T) corr. energy            -0.938697534988
 !PNO-LCCSD(T) total energy          -194.844675179875


 GA_Put processed 1394.10 MW globally, average elapsed time per process: 6.79 sec
 GA_Get processed 79794.81 MW globally, average elapsed time per process: 160.51 sec

 REMARK: Memory usage printed may not be correct.
 CPU Time for PNO-LCCSD(T)(tot):  2932.12 sec. Elapsed time:  3274.47 sec. Memory usage:    36.78 MW (max).

 Direct file usage                  15.87 MB (local),           15.87 MB (max),             15.87 MB (tot)

 Max. memory usage (overall):       36.78 MW (local),           36.78 MW (max),             36.78 MW (tot)
 Max. GA usage (overall):            0.00 MW (local),            0.00 MW (max),              0.00 MW (tot)
 Max. memory+GA usage:              36.78 MW (local),           36.78 MW (max),             36.78 MW (tot)


 **********************************************************************************************************************************
 DATASETS  * FILE   NREC   LENGTH (MB)   RECORD NAMES
              1      19       36.48       500      610      700      900      950      970     1000      129      960     1100   
                                          VAR    BASINP    GEOM    SYMINP    ZMAT    AOBASIS   BASIS     P2S    ABASIS      S 
                                         1400     1410     1200     1210     1080     1600     1650     1700      960(1)
                                           T        V       H0       H01     AOSYM     SMH    MOLCAS    OPER    ABASIS    

              2       4        7.14       700     1000      520     2100   
                                         GEOM     BASIS   MCVARS     RHF  

 PROGRAMS   *        TOTAL  LCCSD(T)     DF-HF       INT
 CPU TIMES  *      2995.52   2958.86     36.02      0.49
 REAL TIME  *      3342.19 SEC
 DISK USED  *       183.49 MB
 **********************************************************************************************************************************

 PNO-LCCSD(T)/aug-cc-pVTZ energy=   -194.844675179875

    PNO-LCCSD(T)           DF-HF
   -194.84467518   -193.90597764
 **********************************************************************************************************************************
 Molpro calculation terminated
