
 Primary working directories    : /var/tmp/pbs.368345.bp1/molpro.GeXWWGehPP
 Secondary working directories  : /var/tmp/pbs.368345.bp1/molpro.GeXWWGehPP
 Wavefunction directory         : /home/lb17101/molpro_test/inp/lowmem/
 Main file repository           : /home/lb17101/molpro_test/inp/lowmem/

 id        : uob

 Nodes                         nprocs
 bp1-01-05-02.data.bp.acrc.priv    1

 Using customized tuning parameters: mindgm=1; mindgv=20; mindgc=4; mindgr=1; noblas=0; minvec=7
 default implementation of scratch files=df  


 Variables initialized (934), CPU time= 0.00 sec
 geomtyp=xyz
 nosym
 noorient
 geometry={
  C       2.037081069569       0.496266381104       0.006804808517
  C       0.606256088079       0.102657717006       0.057948267930
  C       0.095574080161      -1.196412947819      -0.007925827156
  N      -1.300645958593      -1.041782851359      -0.030592361523
  C      -1.506649222784       0.291265587699       0.011575492997
  O      -2.715429983120       0.784914106087      -0.106140438600
  N      -0.382999175434       0.989749121197       0.032833757754
  H       2.182869302787       1.199504087877       0.876145088452
  H       2.228035551868       1.022563437598      -0.923193919584
  H       2.708584303840      -0.418157458026       0.183784894761
  H       0.503783444963      -2.169585930640      -0.280130951025
  H      -2.015904598583      -1.723761853932      -0.000498187097
  H      -2.537437197766       1.764582457226      -0.384327949787
 }
 basis={
 default=vdz-f12
 set,jkfit,context=jkfit
 default,avtz
 set,mp2fit,context=mp2fit
 default,avdz
 set,ri,context=jkfit
 default,avtz
 }
 explicit,ri_basis=ri,df_basis=mp2fit,df_basis_exch=jkfit
 df-hf,basis=jkfit
 pno-lccsd-f12,cabs_singles=1
 Commands  initialized (763), CPU time= 0.01 sec, 617 directives.
 Default parameters read. Elapsed time= 0.06 sec

 Checking input...
 Passed
1


                                         ***  PROGRAM SYSTEM MOLPRO  ***
                                       Copyright, TTI GmbH Stuttgart, 2015
                                    Version 2019.2 linked Oct 25 2019 22:50:27


 **********************************************************************************************************************************
 LABEL *                                                                                 
  64 bit serial version                                                                  DATE: 23-Sep-20          TIME: 02:04:25  
 **********************************************************************************************************************************

 SHA1:             8dbd9ae1082e4ce945b0f27595c9eb2d4aa09004
 **********************************************************************************************************************************
 SETTING GEOMTYP        =    XYZ

 Variable memory set to 1024000000 words,  buffer space 

 ZSYMEL=NOSYM

 SETTING BASIS          =    VDZ-F12


 Recomputing integrals since basis changed


 Using spherical harmonics

 Library entry C      S cc-pVDZ-F12          selected for orbital group  1
 Library entry C      P cc-pVDZ-F12          selected for orbital group  1
 Library entry C      D cc-pVDZ-F12          selected for orbital group  1
 Library entry N      S cc-pVDZ-F12          selected for orbital group  2
 Library entry N      P cc-pVDZ-F12          selected for orbital group  2
 Library entry N      D cc-pVDZ-F12          selected for orbital group  2
 Library entry O      S cc-pVDZ-F12          selected for orbital group  4
 Library entry O      P cc-pVDZ-F12          selected for orbital group  4
 Library entry O      D cc-pVDZ-F12          selected for orbital group  4
 Library entry H      S cc-pVDZ-F12          selected for orbital group  6
 Library entry H      P cc-pVDZ-F12          selected for orbital group  6


 PROGRAM * SEWARD (Integral evaluation for generally contracted gaussian basis sets)     Author: Roland Lindh, 1990

 Geometry written to block  1 of record 700


 Point group  C1  



 ATOMIC COORDINATES

 NR  ATOM    CHARGE       X              Y              Z

   1  C       6.00    3.849525315    0.937807545    0.012859224
   2  C       6.00    1.145657968    0.193994970    0.109506356
   3  C       6.00    0.180608836   -2.260892803   -0.014977643
   4  N       7.00   -2.457864647   -1.968684270   -0.057811185
   5  C       6.00   -2.847154397    0.550412190    0.021874512
   6  O       8.00   -5.131418979    1.483272692   -0.200576360
   7  N       7.00   -0.723763548    1.870354771    0.062046810
   8  H       1.00    4.125025148    2.266734211    1.655674263
   9  H       1.00    4.210376989    1.932364842   -1.744583668
  10  H       1.00    5.118482520   -0.790203073    0.347303117
  11  H       1.00    0.952012737   -4.099923213   -0.529370776
  12  H       1.00   -3.809507585   -3.257437808   -0.000941437
  13  H       1.00   -4.795061362    3.334577568   -0.726274567

 Bond lengths in Bohr (Angstrom)

  1- 2  2.805975133   1- 8  2.130912361   1- 9  2.051332169   1-10  2.169821605   2- 3  2.640698784
       ( 1.484858095)       ( 1.127630260)       ( 1.085518236)       ( 1.148220145)       ( 1.397397618)

  2- 5  4.009646263   2- 7  2.511408249   3- 4  2.654950632   3-11  2.059538084   4- 5  2.550243772
       ( 2.121813426)       ( 1.328980013)       ( 1.404939371)       ( 1.089860619)       ( 1.349530887)

  4-12  1.868437443   5- 6  2.477413527   5- 7  2.500530130   6-13  1.953669572
       ( 0.988734515)       ( 1.310990781)       ( 1.323223560)       ( 1.033837415)

 Bond angles

  1-2-3  126.65243177   1-2-5  159.26843443   1-2-7  122.66268805   2-1-8  105.26862216

  2- 1- 9  109.11947968   2- 1-10  110.31151060   2- 3- 4  105.16664336   2- 3-11  134.82920857

  2-5-4   76.16488610   2-5-6  162.47746410   2-5-7   36.96144005   2-7-5  106.26364379

  3- 2- 5   73.60170590   3- 2- 7  110.34100198   3- 4- 5  105.06496530   3- 4-12  129.97942549

  4- 3-11  117.80576630   4- 5- 6  120.65640716   4- 5- 7  113.09737149   5- 2- 7   36.77491616

  5- 4-12  124.74654649   5- 6-13  102.84026026   6- 5- 7  125.84878966   8- 1- 9  109.59605379

  8- 1-10  107.59096331   9- 1-10  114.53758283

 NUCLEAR CHARGE:                   52
 NUMBER OF PRIMITIVE AOS:         353
 NUMBER OF SYMMETRY AOS:          339
 NUMBER OF CONTRACTIONS:          264   (  264A   )
 NUMBER OF CORE ORBITALS:           7   (    7A   )
 NUMBER OF VALENCE ORBITALS:       34   (   34A   )


 NUCLEAR REPULSION ENERGY  296.44055299


 Basis set:  JKFIT                   
 Basis size:  1004
 Attributes:
 Sphericals:   T
 Basis set:  MP2FIT                  
 Basis size:   642
 Attributes:
 Sphericals:   T
 Basis set:  RI                      
 Basis size:  1004
 Attributes:
 Sphericals:   T

 **********************************************************************************************************************************


 Eigenvalues of metric

         1 0.435E-04 0.872E-04 0.134E-03 0.148E-03 0.250E-03 0.386E-03 0.532E-03 0.601E-03


 OPERATOR DM      FOR CENTER  0  COORDINATES:    0.000000    0.000000    0.000000


 **********************************************************************************************************************************
 DATASETS  * FILE   NREC   LENGTH (MB)   RECORD NAMES
              1      18       32.76       500      610      700      900      950      970     1000      129      960     1100   
                                          VAR    BASINP    GEOM    SYMINP    ZMAT    AOBASIS   BASIS     P2S    ABASIS      S 
                                         1400     1410     1200     1210     1080     1600     1650     1700   
                                           T        V       H0       H01     AOSYM     SMH    MOLCAS    OPER   

 PROGRAMS   *        TOTAL       INT
 CPU TIMES  *         0.85      0.69
 REAL TIME  *         1.99 SEC
 DISK USED  *        33.31 MB
 **********************************************************************************************************************************


 PROGRAM * RHF-SCF (CLOSED SHELL)       Authors: W. Meyer, H.-J. Werner


 NUMBER OF ELECTRONS:      26+   26-    SPACE SYMMETRY=1    SPIN SYMMETRY: Singlet 
 CONVERGENCE THRESHOLDS:    1.00E-05 (Density)    1.00E-07 (Energy)
 INTEGRAL THRESHOLDS:       1.00E-11 (Initial)    1.00E-11 (Final)
 MAX. NUMBER OF ITERATIONS:       60
 INTERPOLATION TYPE:            DIIS
 INTERPOLATION STEPS:              2 (START)      1 (STEP)
 LEVEL SHIFTS:                  0.00 (CLOSED)  0.00 (OPEN) 





 Orbital guess generated from atomic densities. Full valence occupancy:   41
 Using density fitting in orbital guess

 Coulomb and exchange fitting
 Thresholds for fitting:       THRAO_COUL= 1.0D-14    THRAO_EXCH= 1.0D-12    THRMO= 1.0D-11    THRPROD= 1.0D-11    THRASM= 1.0D-11
                               THR2HLF=    1.0D-11

 Molecular orbital dump at record        2100.2

 Initial occupancy:  26

 ITERATION   DDIFF            GRAD            ENERGY        2-EL.EN.            DIPOLE MOMENTS         DIIS   CPU(IT)  CPU(TOT)  ORB.
    1      0.000D+00      0.000D+00      -338.70882648    828.775500   -1.04442   -0.83936   -0.29896    0      2.9      6.1     start
    2      0.000D+00      0.390D-02      -338.78907953    825.336349   -0.13072   -0.30880   -0.29434    1      2.7      8.8     diag
    3      0.618D-02      0.218D-02      -338.81311121    826.585764   -0.48546   -0.64406   -0.29293    2      2.7     11.5     diag
    4      0.237D-02      0.551D-03      -338.81551648    826.632691   -0.36838   -0.52017   -0.29724    3      2.7     14.2     diag
    5      0.808D-03      0.185D-03      -338.81577267    826.523533   -0.37704   -0.56537   -0.29913    4      2.7     16.8     diag
    6      0.275D-03      0.537D-04      -338.81580833    826.516062   -0.37169   -0.54879   -0.29935    5      2.7     19.5     diag
    7      0.103D-03      0.205D-04      -338.81581475    826.530505   -0.37066   -0.54895   -0.29954    6      2.7     22.2     diag
    8      0.469D-04      0.749D-05      -338.81581591    826.522222   -0.37124   -0.54738   -0.29961    7      2.7     24.9     diag
    9      0.205D-04      0.298D-05      -338.81581613    826.523767   -0.37127   -0.54705   -0.29957    8      2.7     27.6     diag
   10      0.968D-05      0.117D-05      -338.81581616    826.523699   -0.37144   -0.54681   -0.29958    9      2.7     30.4     orth
   11      0.328D-05      0.415D-06      -338.81581616    826.523330   -0.37143   -0.54678   -0.29958    0      2.7     33.1     orth

 Final occupancy:  26

 !RHF STATE  1.1 Energy              -338.815816160575
 Nuclear energy                       296.44055299
 One-electron energy                -1048.51803434
 Two-electron energy                  413.26166519
 Virial quotient                       -1.00186116
 !RHF STATE  1.1 Dipole moment         -0.37142993    -0.54678416    -0.29957974
 Dipole moment /Debye                  -0.94401888    -1.38969569    -0.76140587

 Orbital energies:

         1.1          2.1          3.1          4.1          5.1          6.1          7.1          8.1          9.1         10.1
    -20.620466   -15.612963   -15.534217   -11.363912   -11.254530   -11.245815   -11.226904    -1.455115    -1.325199    -1.185892

        11.1         12.1         13.1         14.1         15.1         16.1         17.1         18.1         19.1         20.1
     -1.019325    -0.930015    -0.837687    -0.792661    -0.757712    -0.670586    -0.655708    -0.623926    -0.590369    -0.576659

        21.1         22.1         23.1         24.1         25.1         26.1         27.1         28.1
     -0.540182    -0.526721    -0.518104    -0.440207    -0.405368    -0.287112     0.048563     0.054136


 HOMO     26.1    -0.287112 =      -7.8127eV
 LUMO     27.1     0.048563 =       1.3215eV
 LUMO-HOMO         0.335675 =       9.1342eV


 **********************************************************************************************************************************
 DATASETS  * FILE   NREC   LENGTH (MB)   RECORD NAMES
              1      18       32.76       500      610      700      900      950      970     1000      129      960     1100   
                                          VAR    BASINP    GEOM    SYMINP    ZMAT    AOBASIS   BASIS     P2S    ABASIS      S 
                                         1400     1410     1200     1210     1080     1600     1650     1700   
                                           T        V       H0       H01     AOSYM     SMH    MOLCAS    OPER   

              2       4        4.67       700     1000      520     2100   
                                         GEOM     BASIS   MCVARS     RHF  

 PROGRAMS   *        TOTAL     DF-HF       INT
 CPU TIMES  *        33.95     33.10      0.69
 REAL TIME  *        37.03 SEC
 DISK USED  *       129.99 MB
 **********************************************************************************************************************************

 Basis set:  JKFIT                   
 Basis size:  1004
 Attributes:
 Sphericals:   T
 Basis set:  MP2FIT                  
 Basis size:   642
 Attributes:
 Sphericals:   T
 Basis set:  RI                      
 Basis size:  1004
 Attributes:
 Sphericals:   T

 World communicator: rank 0, size 1
 Shared-memory communicator: rank 0, size 1
 Current node: rank 0, 1 node(s) in total

 Restoring occupations from record    2100.2

 Program * PNO-LCCSD-F12   Authors:   H.-J. Werner (2012), M. Schwilk, Q. Ma (2016)

 Number of core orbitals:           7
 Number of closed-shell orbitals:  19
 Number of open-shell orbitals:     0
 Number of valence orbitals:       19
 Number of external orbitals:     238


 Calculation of CABS singles correction
 ======================================


 Molecular orbitals read from record     2100.2  Type=RHF/CANONICAL (state 1.1)
 Fock matrix read from record            2100.2  Type=RHF/TOTAL (state 1.1)
 Some Fock operators are calculated for F12-singles only.

 AO(A)-basis ORBITAL           loaded. Number of functions:     264
 RI(R)-basis RI                loaded. Number of functions:    1004
 DF-basis JKFIT                loaded. Number of functions:    1004

 Screening thresholds:   THRAO=  1.00D-10  THRMO=  1.00D-09  THRPROD=  1.00D-09
                         THRSW=  1.00D-05  THROV=  1.00D-12  THRAOF12= 1.00D-08

 CPU time for Fock operators                     36.69 sec

 Construction of ABS:
 Smallest eigenvalue of S          5.99E-07  (threshold= 1.00E-08)
 Ratio eigmin/eigmax               4.44E-08  (threshold= 1.00E-09)
 Smallest eigenvalue of S kept     5.99E-07  (threshold= 5.99E-07, 0 functions deleted, 1004 kept)

 Construction of CABS:
 Smallest eigenvalue of S          1.24E-08  (threshold= 1.00E-08)
 Ratio eigmin/eigmax               1.24E-08  (threshold= 1.00E-09)
 Smallest eigenvalue of S kept     1.24E-08  (threshold= 1.24E-08, 0 functions deleted, 1004 kept)

 CPU time for CABS singles                        1.33 sec

 CABS-singles contribution of  -0.03092028 patched into reference energy.
 New reference energy        -338.84673644

 Leaving lmp2-f12 by request (CABS_SINGLES < 0) after calculation of singles.

 iclose= 0  iweak= 0  rclose= 0.00  rweak= 0.00  thrclos= 1.0D-04  thrweak= 1.0D-05  open-shell=F

 Use_GA=T  Use_PAO=T  PAO_pairdom=F  PAO_trans=T  LOCFIT= 1  LOCRI=T  EIJDIP=2  PROJECT_K=T

 Threshold for small PAO norm:    0.00D+00
 Threshold for redundancy check:  1.00D-06

 OPTIONS FOR CCSD:   method= LCCSD     icepa= -1  icepac=-1  icepaw= 2  keepcls=1  maxcls=1  maxclt=2  maxwkt=2  do_mp2w=F
                     project_k=T    project_j=ALL    idexp4_close=0

 OPTIONS FOR SINGLES IN CCSD:   isexp4=  1  isexp5= 0  isexp6= 0  project_je=T  project_s=WEAK
                                includeGE= 1  includeKEKJ= 1  includeJEKJ= 0  includeJ= 2  undress=T  project_ke=2

 Molecular orbitals read from record     2100.2  Type=RHF/CANONICAL (state 1.1)
 Orbital energies read from record       2100.2  Type=RHF/CANONICAL (state 1.1)
 Fock matrix read from record            2100.2  Type=RHF/TOTAL (state 1.1)

  Reference energy                   -338.815816160576
  CABS singles correction              -0.030920281450
  New reference energy               -338.846736442025


 Computing intrinsic bond orbitals
 =================================

 Basis set MINAO-AUTO-PP generated.      Number of basis functions:   41 

 Polarized AO type:                A = (O Ot + (1-O)(1-Ot)) P12
 Orthogonalization method:         Symmetric (Loewdin)
 Localization functional:          L = sum[A,i] <i|n_A|i>^4 -> max

 Localization group 1:  19 orbitals, occupancy  2.000
 Iterative localization: IB/PM,    9 iter; Final gradient 0.63E-08

 Summary of localized orbital composition:   [THRPRINT= 0.020]

   ORB  GRP  ORB.ENERGY      CENTERS/CHARGES
     8   1    -1.127199      O  6   1.256   C  5   0.738
     9   1    -0.987424      N  4   1.155   C  5   0.832
    10   1    -0.973294      N  7   1.073   C  5   0.912
    11   1    -0.934408      N  7   1.121   C  2   0.854   (other: 0.025)
    12   1    -0.925021      O  6   1.387   H 13   0.590   (other: 0.023)
    13   1    -0.895408      N  4   1.219   C  3   0.764
    14   1    -0.890330      N  4   1.313   H 12   0.677
    15   1    -0.817557      C  3   1.011   C  2   0.977
    16   1    -0.799730      O  6   1.977   (other: 0.023)
    17   1    -0.751681      C  2   1.021   C  1   0.971
    18   1    -0.698638      C  3   1.156   H 11   0.837
    19   1    -0.659593      C  1   1.140   H  9   0.842
    20   1    -0.629223      C  1   1.123   H  8   0.858
    21   1    -0.628547      C  1   1.113   H 10   0.877
    22   1    -0.573982      O  6   1.886   C  5   0.085   (other: 0.030)
    23   1    -0.527065      N  7   1.928   C  5   0.023   (other: 0.048)
    24   1    -0.498744      N  4   1.619   C  5   0.258   C  3   0.059   C  2   0.041   (other: 0.022)
    25   1    -0.470159      N  7   1.323   C  5   0.459   C  2   0.196   (other: 0.022)
    26   1    -0.350540      C  3   1.157   C  2   0.715   C  5   0.105   (other: 0.022)

 Localizing core orbitals

 CPU Time for LMOs:                 39.01 sec. Elapsed time:    41.70 sec. Memory usage:     0.28 MW (max).
 CPU Time for PAOs:                  0.01 sec. Elapsed time:     0.01 sec. Memory usage:     0.36 MW (max).

 Distance criteria for pair classes:       RCLOSE= 0.0  RWEAK= 0.0  RDIST= 0.0  RVDIST=-1.0
 Connectivity criteria for pair classes:   ICLOSE=   0  IWEAK=   0  IDIST=   0  IVDIST=  -1

 Augmenting orbital domains by 2 shell(s) of neighboring atoms.  Minimum radius:     5.00
 Augmenting RI domains by 3 shell(s) of neighboring atoms.  Minimum radius:          7.00
 Augmenting DF domains by 2 shell(s) of neighboring atoms.  Minimum radius:          5.00

 Generating LMO domains. Method=COEFF  Threshold=1.00D-06

 Fitting truncated LMOs to exact LMOs

 Minimum LMO domain size:                264
 Maximum LMO domain size:                264
 Average LMO domain size:              264.0   (sparsity   0.00 %)

 CPU time for Fitlmo:                   0.00 sec.

 PAO orbital domain sizes:   138 (min),  255 (max),  194.1 (average)
 DF  orbital domain sizes:   334 (min),  619 (max),  469.6 (average)
 RI  orbital domain sizes:   716 (min), 1004 (max),  896.1 (average)

 CPU Time for Domains:               0.00 sec. Elapsed time:     0.01 sec. Memory usage:     0.14 MW (max).

 Number of residual matrices on current processor:       19
 Number of amplitude matrices on current processor:     190

 Fitting basis MP2FIT loaded

 Threshold for block screening:     1.00D-05
 Threshold for integral screening:  1.00D-10

 CPU time for create_blocked_AO basis:                 0.02 sec, 264 functions, 13 blocks.
 CPU time for create_blocked_DF basis:                 0.05 sec, 642 functions, 24 blocks.
 CPU time for create_blocked_RI basis:                 0.05 sec, 1004 functions, 13 blocks.

 Fitting basis center dimensions: min=   23, max=   72, average= 49.38
 Fitting basis block dimensions:  min=   1, max=  36, average= 26.75

 CPU time for project LMOs:                                    0.00 sec.
 CPU time for project PAOs:                                    0.00 sec.

 Screening PAOs with threshold      1.00D-06

 Minimum PAO vector length:              264
 Maximum PAO vector length:              264
 Average PAO vector length:            264.0  (sparsity  0.00 %)

 CPU time for cut/fit of PAO vectors:                          0.01 sec.

 CPU Time for Block_basis:           0.11 sec. Elapsed time:     0.14 sec. Memory usage:     0.19 MW (max).
 CPU Time for Orbitals(tot):        39.13 sec. Elapsed time:    41.86 sec. Memory usage:     0.19 MW (max).
 CPU Time for PAO integrals:         1.95 sec. Elapsed time:     2.06 sec. Memory usage:     1.84 MW (max).
 CPU Time for PAO integrals:         0.00 sec. Elapsed time:     0.00 sec. Memory usage:     0.94 MW (max).
 CPU Time for PAO amplitudes:        0.37 sec. Elapsed time:     0.37 sec. Memory usage:     1.84 MW (max).

 Generating OSVs using PAO(PERT) amplitudes, throsv= 1.0D-09

 Minimum OSV orbital domain size:         56
 Maximum OSV orbital domain size:        143
 Average OSV orbital domain size:       82.9

 CPU Time for OSV_generate:          0.12 sec. Elapsed time:     0.12 sec. Memory usage:     1.45 MW (max).

 Computing distant pair energies using multipole approximation up to order   3

 CPU time for computing multipole integrals (PAO/LMO):         0.30 sec
 CPU time for transforming integrals to OSV domains:           0.00 sec
 CPU time for distant pair energies:                           0.43 sec

 Distant pairs selected using the multipole order 3,  thrdist=1.0D-06  thrvdist=1.0D-07

 Semi-canonical distant pair energies, multipole-orders 1-3    0.00000000  0.00000000  0.00000000


 CPU Time for osv_mltp:              0.42 sec. Elapsed time:     0.44 sec. Memory usage:     0.51 MW (max).

 Number of strong pairs:                 190
 Number of close pairs:                    0
 Number of weak pairs:                     0
 Number of distant pairs:                  0  (treated by iterative multipole approximation, thrdist= 1.0D-06)
 Number of very distant pairs:             0  (treated by non-iterative multipole approximation, thrvdist= 1.0D-07)
 Total number of pairs in LMP2:          190

 Number of pairs per orbital (min, max, average):

 Strong pairs:              19    19    19.0
 Close pairs:                0     0     0.0
 Weak  pairs:                0     0     0.0
 Distant  pairs:             0     0     0.0
 Very distant pairs:         0     0     0.0

 CPU Time for Distribute_pairs:      0.00 sec. Elapsed time:     0.00 sec. Memory usage:     0.51 MW (max).

 Number of residual matrices on current processor:      190
 Number of amplitude matrices on current processor:     190
 F12 pair list with SKIPF=3, 190 pairs.

 Minimum OSV pair domain size:            56
 Maximum OSV pair domain size:           263
 Average OSV pair domain size:         157.6
 Total number of OSVs:                  1576
 Total number of OSV amplitudes:     5006656

 CPU Time for OSV_pairdom:           2.39 sec. Elapsed time:     2.40 sec. Memory usage:     5.50 MW (max).
 CPU Time for OSV integrals:         5.44 sec. Elapsed time:     5.66 sec. Memory usage:    11.69 MW (max).
 CPU Time for OSV_smatrix:           0.10 sec. Elapsed time:     0.10 sec. Memory usage:    10.42 MW (max).

 nosvmx= 263  nosvt= 1576  lens=         0  lenr=   4918637  lent=   5006656  leng=   5006656  lenw=   4990933  lenosv=     69169

 Generating PNOs using OSV(SC) amplitudes, THRPNO_EN=0.9970,  THRPNO_OCC=1.0D-08,  KEEP_DIAG=T  THRPNO_DIAG=0.0D+00

 Generating PNOs for LCCSD with thresholds: THREN_CC:  0.99000, THRPNO_CC:1.0D-07

                                                PNO-LMP2     PNO_LCCSD
 Minimum PNO domain size:                            36            18
 Maximum PNO domain size:                           115            75
 Average PNO domain size:                          64.0          41.1
 Total number of PNOs:                            12161          7800
 Total number of PNO amplitudes:                 806597
 Local number of PNO amplitudes:                 806597
 Length of local PNO residual:                   806597
 Length of local W-matrix:                      1979451

 Semi-canonical OSV correlation energy:     -1.15823402
 Semi-canonical PNO correlation energies:   -1.15802798   -1.15696263

 Semi-canonical domain correction:          -0.00020604   -0.00127139

 CPU Time for PNO_generate:          1.76 sec. Elapsed time:     1.78 sec. Memory usage:    11.65 MW (max).

 Local length of PNO overlap matrix for PNO-LMP2:   13529428  Number of blocks:    3249  number of pairs   190

 GA space for pno_smat:             13.53 MW (tot),             13.53 MW (min),             13.53 MW (max), using processor specific storage

 CPU Time for READ_OSV_SBUF:         0.00 sec. Elapsed time:     0.01 sec. Memory usage:     4.91 MW (max).
 CPU Time for PNO_SMAT:              0.96 sec. Elapsed time:     1.03 sec. Memory usage:     4.89 MW (max).

 Denominator shift:          0.2000

 ITER.      SQ.NORM     CORR.ENERGY   TOTAL ENERGY   ENERGY CHANGE     VAR    DIIS
   1      0.34309603    -1.18387471  -340.03061115    -1.18387471  0.24D-02   1  1
   2      0.36322351    -1.19414557  -340.04088201    -0.01027086  0.75D-04   2  2
   3      0.37208309    -1.19444594  -340.04118238    -0.00030036  0.14D-05   3  3
   4      0.37271107    -1.19445065  -340.04118709    -0.00000472  0.44D-07   4  4
   5      0.37269720    -1.19445079  -340.04118723    -0.00000014  0.11D-08   5  5

                                            PNO-LMP2        PNO-LMP2_CORR
  PNO-LMP2 correlation energy          -1.194450791797    -1.194656836332
 !PNO-LMP2 total energy              -340.041187233823  -340.041393278358

 CPU Time for PNO-LMP2:              2.28 sec. Elapsed time:     2.63 sec. Memory usage:     5.88 MW (max).

 Computing the F12/3*A(LOC,FIX) energy correction
 ================================================
 Options for MP2-F12: THRF12=0.0E+00  THRVAL=0.1E-03  N_RI_BATCH=0
 Geminal basis:    OPTFULL  GEM_TYPE=SLATER  BETA=1.0  NGEM=6

 Optimizing Gaussian exponents for each gem_beta

 Geminal optimization for beta= 1.0000
 Weight function:   m=0, omega= 1.4646

 Augmented Hessian optimization of geminal fit. Trust ratio= 0.40000
 Convergence reached after   2 iterations. Final gradient= 8.53D-16, Step= 4.26D-06, Delta= 1.28D-09

 Alpha:                 0.19532     0.81920     2.85917     9.50073    35.69989   197.79328
 Coeff:                 0.27070     0.30552     0.18297     0.10986     0.06810     0.04224

 Screened 190 pairs with threshold 0.0E+00, 190 pairs actually used.

  F12(PNO) correction                  -0.265437347009
  PNO-LMP2-F12(PNO) corr. energy       -1.459888138806
 !PNO-LMP2-F12(PNO) total energy     -340.306624580832

 CPU Time for F12_energy:          111.53 sec. Elapsed time:   113.44 sec. Memory usage:    13.75 MW (max).

 PNO-LMP2-F12 energy contributions
 =================================
                            OSV-LMP2(SC)     PNO-LMP2     PNO-SCS-LMP2   F12 contrib.  PNO-LMP2-F12  PNO-SCS-LMP2-F12  %(PNO/OSV)  AVDOM(PNO)
 Strong pair energy:        -1.15823402    -1.19445079    -1.15892985    -0.26543735    -1.45988814    -1.45011519       103.13       64.0
 Close pair energy:          0.00000000     0.00000000     0.00000000     0.00000000     0.00000000     0.00000000         0.00        0.0
 Weak pair energy :          0.00000000     0.00000000     0.00000000     0.00000000     0.00000000     0.00000000         0.00        0.0
 Distant pair energy:        0.00000000     0.00000000     0.00000000     0.00000000     0.00000000     0.00000000         0.00        0.0
 Total correl. energy:      -1.15823402    -1.19445079    -1.15892985    -0.26543735    -1.45988814    -1.45011519       103.13       64.0

 GA space for pno_smat:              5.51 MW (tot),              5.51 MW (min),              5.51 MW (max), using processor specific storage

 CPU Time for READ_OSV_SBUF:         0.04 sec. Elapsed time:     0.05 sec. Memory usage:     2.98 MW (max).
 CPU Time for PNO_SMAT:              0.62 sec. Elapsed time:     0.65 sec. Memory usage:     2.96 MW (max).

 Denominator shift:          0.2000

 ITER.      SQ.NORM     CORR.ENERGY   TOTAL ENERGY   ENERGY CHANGE     VAR    DIIS
   1      0.37238584    -1.19270403  -340.03944047    -1.19270403  0.95D-05   1  1
   2      0.37201505    -1.19278631  -340.03952275    -0.00008228  0.57D-07   2  2
   3      0.37186111    -1.19278663  -340.03952308    -0.00000033  0.77D-09   3  3

 LMP2 results with LCCSD domains:
 ================================
                                            PNO-LMP2        PNO-LMP2_CORR
  PNO-LMP2 correlation energy          -1.192786633535    -1.194656836332
  PNO-LMP2 total energy              -340.039523075561  -340.041393278358
  F12(PNO) correction                  -0.267122958834
  PNO-LMP2-F12 correlation energy      -1.459909592369
  PNO-LMP2-F12 total energy          -340.306646034394

  PNO-LMP2-F12 domain correction        0.000021453563

 CPU Time for PNO-LMP2(tot):       128.45 sec. Elapsed time:   131.30 sec. Memory usage:    16.40 MW (max).

 Energy thresholds for pair classes:  THRCLOSE=1.00D-04  THRWEAK= 1.00D-05  THRDISTC=0.00D+00

 Strong and close pairs optimized in LCCSD, close pair residuals are approximated (keepcls=1).

 Number of optimized pairs:         190
 Number of strong pairs:            166
 Number of close pairs:              22
 Number of weak pairs:                2
 Total number of pairs:             190

 Length of pair-specific S-blocks:   123.05 MW,  length of unique S-blocks    30.21 MW

 CPU Time for LCC_opdom:             0.10 sec. Elapsed time:     0.12 sec. Memory usage:     0.50 MW (max).
 CPU Time for LCC_float:             0.01 sec. Elapsed time:     0.01 sec. Memory usage:     0.19 MW (max).

 CPU Time for LCC_opdom:             0.08 sec. Elapsed time:     0.08 sec. Memory usage:     0.50 MW (max).
 CPU Time for LCC_load:              0.00 sec. Elapsed time:     0.01 sec. Memory usage:     2.42 MW (max).

 Estimated GA usage of PNO-LCCSD-F12 integrals:                  0.00 MW
 Maximum GA usage after allocating GAs for CCSD integrals:       0.00 MW

 CPU Time for CCSD integrals:      362.91 sec. Elapsed time:   377.05 sec. Memory usage:    15.16 MW (max).

 GA space for pno_smat:             30.21 MW (tot),             30.21 MW (min),             30.21 MW (max), using node specific storage
 CPU Time for OSV_SMAT_LCC:          0.10 sec. Elapsed time:     0.10 sec. Memory usage:    16.74 MW (max).
 CPU Time for READ_OSV_SBUF:         0.00 sec. Elapsed time:     0.00 sec. Memory usage:    16.74 MW (max).
 CPU Time for PNO_SMAT_LCC:          3.37 sec. Elapsed time:     3.61 sec. Memory usage:    15.45 MW (max).

 Current GA usage:                   0.00 MW.  Maximum GA usage up to this point:            0.00 MW

 Solving PNO-LCCSD equations

 K-Operators in non-linear terms are projected

 Close pairs are approximated (keepcls=1, max_ijkl=0, skip_ijkl=0, maxik=0)

 Weak pairs pairs are treated by CEPA(2)

 Denominator shifts:     0.15 (singles),  0.20 (doubles)

 ITER.      SQ.NORM     CORR.ENERGY   TOTAL ENERGY   ENERGY CHANGE     VAR        VART1     DIIS     TIME
    1     0.37889070    -1.40952891  -340.25626536     0.05038068    0.41D-02    0.70D-02   1  1    24.00
    2     0.35510221    -1.44230467  -340.28904111    -0.03277576    0.60D-03    0.15D-03   2  2    47.44
    3     0.38070800    -1.44555432  -340.29229076    -0.00324965    0.44D-04    0.88D-04   3  3    72.19
    4     0.38608088    -1.44621165  -340.29294809    -0.00065733    0.65D-05    0.13D-04   4  4    96.32
    5     0.38748017    -1.44631655  -340.29305299    -0.00010490    0.94D-06    0.30D-05   5  5   120.15
    6     0.38795910    -1.44637923  -340.29311568    -0.00006268    0.10D-06    0.73D-06   6  6   144.03
    7     0.38822285    -1.44639734  -340.29313378    -0.00001810    0.28D-07    0.65D-07   7  7   167.97
    8     0.38826053    -1.44639911  -340.29313555    -0.00000177    0.38D-08    0.13D-07   8  8   191.79
    9     0.38826469    -1.44640007  -340.29313651    -0.00000096    0.64D-09    0.12D-08   1  8   215.31

 Convergence reached

  T1 diagnostic   0.01316
  D1 diagnostic   0.05424
   
  Reference energy                   -338.815816160576
  CABS singles correction              -0.030920281450
  New reference energy               -338.846736442025

  Correlation contributions without domain correction:

  PNO-LCCSD-F12 singles energy          0.000686862733
  PNO-LCCSD-F12a strong pair energy    -1.446271939700
  PNO-LCCSD-F12b strong pair energy    -1.414871596072
  PNO-LCCSD-F12 close pair energy      -0.000795814251
  PNO-CEPA(2)-F12 weak pair energy     -0.000019180031
  PNO-SCS-LMP2 distant pair energy      0.000000000000

  Results including domain correction:

  PNO-LMP2-F12 correction               0.000021453563
  PNO-LCCSD-F12a correlation energy    -1.446378617685
  PNO-LCCSD-F12b correlation energy    -1.414978274057

 !PNO-LCCSD-F12a total energy        -340.293115059711
 !PNO-LCCSD-F12b total energy        -340.261714716083

 Maximum stack memory usage in PNO-LCCSD iterations: 18.03 MW
 Maximum GA memory usage up to this point: .00 MW
 Maximum local disk usage in MB: 1908.74 (current)   1908.74 (maximum)   1908.74 (average)
 Maximum local disk usage per node: 1908.74 MB

 CPU Time for PNO_LCCSD(it):       197.10 sec. Elapsed time:   215.33 sec. Memory usage:    15.56 MW (max).

 GA_Put processed 281.65 MW globally, average elapsed time per process: 2.09 sec
 GA_Get processed 28691.78 MW globally, average elapsed time per process: 37.14 sec

 REMARK: Memory usage printed may not be correct.
 CPU Time for LCCSD(tot):          563.67 sec. Elapsed time:   596.82 sec. Memory usage:    16.74 MW (max).

 Direct file usage                 308.88 MB (local),          308.88 MB (max),            308.88 MB (tot)

 Max. memory usage (overall):       16.74 MW (local),           16.74 MW (max),             16.74 MW (tot)
 Max. GA usage (overall):            0.00 MW (local),            0.00 MW (max),              0.00 MW (tot)
 Max. memory+GA usage:              16.74 MW (local),           16.74 MW (max),             16.74 MW (tot)


 **********************************************************************************************************************************
 DATASETS  * FILE   NREC   LENGTH (MB)   RECORD NAMES
              1      19       32.82       500      610      700      900      950      970     1000      129      960     1100   
                                          VAR    BASINP    GEOM    SYMINP    ZMAT    AOBASIS   BASIS     P2S    ABASIS      S 
                                         1400     1410     1200     1210     1080     1600     1650     1700      960(1)
                                           T        V       H0       H01     AOSYM     SMH    MOLCAS    OPER    ABASIS    

              2       5        5.79       700     1000      520     2100     7360   
                                         GEOM     BASIS   MCVARS     RHF    F12ABS    

 PROGRAMS   *        TOTAL LCCSD-F12     DF-HF       INT
 CPU TIMES  *       765.40    731.42     33.10      0.69
 REAL TIME  *       807.24 SEC
 DISK USED  *       941.25 MB
 **********************************************************************************************************************************

 PNO-LCCSD-F12/cc-pVDZ-F12 energy=   -340.261714716083

   PNO-LCCSD-F12           DF-HF
   -340.29311506   -338.81581616
 **********************************************************************************************************************************
 Molpro calculation terminated
