
 Primary working directories    : /var/tmp/pbs.368348.bp1/molpro.M2NhwCHBle
 Secondary working directories  : /var/tmp/pbs.368348.bp1/molpro.M2NhwCHBle
 Wavefunction directory         : /home/lb17101/molpro_test/inp/lowmem/
 Main file repository           : /home/lb17101/molpro_test/inp/lowmem/

 id        : uob

 Nodes                         nprocs
 bp1-01-10-04.data.bp.acrc.priv    1

 Using customized tuning parameters: mindgm=1; mindgv=20; mindgc=4; mindgr=1; noblas=0; minvec=7
 default implementation of scratch files=df  


 Variables initialized (934), CPU time= 0.01 sec
 geomtyp=xyz
 nosym
 noorient
 geometry={
  O      -0.706008346722       1.036629944386       0.804230614962
  C      -1.231464409367      -0.177812111092       0.279335222599
  C      -0.326972948661      -0.467404445209      -0.503915194179
  C       0.932904498472      -0.635839691542       0.047609460338
  O       1.854495196672       0.735421987739      -0.862833288860
  H      -1.762370146532       2.226678673831       0.795798800702
  H      -2.312567145797       0.160728687381      -0.155602019488
  H      -1.652899218661      -0.868144548929       1.134267063802
  H       0.524861751647       0.356909671933      -1.059266382030
  H      -0.789969584605      -1.382178072903      -1.145471785623
  H       0.622816650783      -0.425931540122       1.162680165934
  H       1.585998182551      -1.018426860800      -0.774000658499
  H       1.890645556438       1.421423924419      -0.064400351247
 }
 basis={
 default=vdz-f12
 set,jkfit,context=jkfit
 default,avtz
 set,mp2fit,context=mp2fit
 default,avdz
 set,ri,context=jkfit
 default,avtz
 }
 explicit,ri_basis=ri,df_basis=mp2fit,df_basis_exch=jkfit
 df-hf,basis=jkfit
 pno-lccsd-f12,cabs_singles=1
 Commands  initialized (763), CPU time= 0.01 sec, 617 directives.
 Default parameters read. Elapsed time= 0.07 sec

 Checking input...
 Passed
1


                                         ***  PROGRAM SYSTEM MOLPRO  ***
                                       Copyright, TTI GmbH Stuttgart, 2015
                                    Version 2019.2 linked Oct 25 2019 22:50:27


 **********************************************************************************************************************************
 LABEL *                                                                                 
  64 bit serial version                                                                  DATE: 23-Sep-20          TIME: 02:05:45  
 **********************************************************************************************************************************

 SHA1:             8dbd9ae1082e4ce945b0f27595c9eb2d4aa09004
 **********************************************************************************************************************************
 SETTING GEOMTYP        =    XYZ

 Variable memory set to 1024000000 words,  buffer space 

 ZSYMEL=NOSYM

 SETTING BASIS          =    VDZ-F12


 Recomputing integrals since basis changed


 Using spherical harmonics

 Library entry O      S cc-pVDZ-F12          selected for orbital group  1
 Library entry O      P cc-pVDZ-F12          selected for orbital group  1
 Library entry O      D cc-pVDZ-F12          selected for orbital group  1
 Library entry C      S cc-pVDZ-F12          selected for orbital group  2
 Library entry C      P cc-pVDZ-F12          selected for orbital group  2
 Library entry C      D cc-pVDZ-F12          selected for orbital group  2
 Library entry H      S cc-pVDZ-F12          selected for orbital group  4
 Library entry H      P cc-pVDZ-F12          selected for orbital group  4


 PROGRAM * SEWARD (Integral evaluation for generally contracted gaussian basis sets)     Author: Roland Lindh, 1990

 Geometry written to block  1 of record 700


 Point group  C1  



 ATOMIC COORDINATES

 NR  ATOM    CHARGE       X              Y              Z

   1  O       8.00   -1.334162417    1.958946687    1.519775603
   2  C       6.00   -2.327130466   -0.336016192    0.527867068
   3  C       6.00   -0.617889323   -0.883266391   -0.952261707
   4  C       6.00    1.762934002   -1.201562876    0.089968841
   5  O       8.00    3.504488021    1.389746143   -1.630518607
   6  H       1.00   -3.330396907    4.207812861    1.503841784
   7  H       1.00   -4.370118550    0.303733200   -0.294045201
   8  H       1.00   -3.123526835   -1.640555434    2.143454103
   9  H       1.00    0.991844964    0.674461531   -2.001723355
  10  H       1.00   -1.492826162   -2.611938013   -2.164627958
  11  H       1.00    1.176952896   -0.804893959    2.197147084
  12  H       1.00    2.997102199   -1.924547845   -1.462649265
  13  H       1.00    3.572802300    2.686101924   -0.121699026

 Bond lengths in Bohr (Angstrom)

 1-2  2.690115742  2-3  2.326320970  2-7  2.293167978  2-8  2.224003435  3-4  2.618372944
     ( 1.423547945)     ( 1.231036042)     ( 1.213492235)     ( 1.176891935)     ( 1.385583292)

  3- 9  2.473687633   3-10  2.285531005   4- 5  3.564823963   4-11  2.222818084   4-12  2.111042725
       ( 1.309019122)       ( 1.209450923)       ( 1.886423602)       ( 1.176264674)       ( 1.117115701)

  5-13  1.990412440
       ( 1.053280903)

 Bond angles

  1-2-3   99.44402465   1-2-7  102.88549621   1-2-8  111.39132069   2-3-4  116.32234082

  2- 3- 9  126.86418147   2- 3-10  103.54206522   3- 2- 7  119.48299064   3- 2- 8  125.96646234

  3- 4- 5   99.42421943   3- 4-11   96.65784175   3- 4-12  106.28800787   4- 3- 9   69.73981922

  4- 3-10  117.85817730   4- 5-13   97.14325806   5- 4-11  117.16729278   5- 4-12   66.94450917

  7- 2- 8   96.02625475   9- 3-10  120.02386450  11- 4-12  155.84582991

 NUCLEAR CHARGE:                   42
 NUMBER OF PRIMITIVE AOS:         293
 NUMBER OF SYMMETRY AOS:          283
 NUMBER OF CONTRACTIONS:          222   (  222A   )
 NUMBER OF CORE ORBITALS:           5   (    5A   )
 NUMBER OF VALENCE ORBITALS:       28   (   28A   )


 NUCLEAR REPULSION ENERGY  195.39172238


 Basis set:  JKFIT                   
 Basis size:   888
 Attributes:
 Sphericals:   T
 Basis set:  MP2FIT                  
 Basis size:   544
 Attributes:
 Sphericals:   T
 Basis set:  RI                      
 Basis size:   888
 Attributes:
 Sphericals:   T

 **********************************************************************************************************************************


 Eigenvalues of metric

         1 0.679E-04 0.167E-03 0.259E-03 0.480E-03 0.683E-03 0.960E-03 0.131E-02 0.138E-02


 OPERATOR DM      FOR CENTER  0  COORDINATES:    0.000000    0.000000    0.000000


 **********************************************************************************************************************************
 DATASETS  * FILE   NREC   LENGTH (MB)   RECORD NAMES
              1      18       32.01       500      610      700      900      950      970     1000      129      960     1100   
                                          VAR    BASINP    GEOM    SYMINP    ZMAT    AOBASIS   BASIS     P2S    ABASIS      S 
                                         1400     1410     1200     1210     1080     1600     1650     1700   
                                           T        V       H0       H01     AOSYM     SMH    MOLCAS    OPER   

 PROGRAMS   *        TOTAL       INT
 CPU TIMES  *         0.58      0.47
 REAL TIME  *         1.55 SEC
 DISK USED  *        32.54 MB
 **********************************************************************************************************************************


 PROGRAM * RHF-SCF (CLOSED SHELL)       Authors: W. Meyer, H.-J. Werner


 NUMBER OF ELECTRONS:      21+   21-    SPACE SYMMETRY=1    SPIN SYMMETRY: Singlet 
 CONVERGENCE THRESHOLDS:    1.00E-05 (Density)    1.00E-07 (Energy)
 INTEGRAL THRESHOLDS:       1.00E-11 (Initial)    1.00E-11 (Final)
 MAX. NUMBER OF ITERATIONS:       60
 INTERPOLATION TYPE:            DIIS
 INTERPOLATION STEPS:              2 (START)      1 (STEP)
 LEVEL SHIFTS:                  0.00 (CLOSED)  0.00 (OPEN) 





 Orbital guess generated from atomic densities. Full valence occupancy:   33
 Using density fitting in orbital guess

 Coulomb and exchange fitting
 Thresholds for fitting:       THRAO_COUL= 1.0D-14    THRAO_EXCH= 1.0D-12    THRMO= 1.0D-11    THRPROD= 1.0D-11    THRASM= 1.0D-11
                               THR2HLF=    1.0D-11

 Molecular orbital dump at record        2100.2

 Initial occupancy:  21

 ITERATION   DDIFF            GRAD            ENERGY        2-EL.EN.            DIPOLE MOMENTS         DIIS   CPU(IT)  CPU(TOT)  ORB.
    1      0.000D+00      0.000D+00      -267.40537738    589.898284   -2.27793    0.62250    1.01247    0      1.1      2.4     start
    2      0.000D+00      0.560D-02      -267.48558534    573.820900   -0.75824    0.02073    0.52189    1      1.1      3.6     diag
    3      0.919D-02      0.478D-02      -267.55583206    581.597812   -1.32524   -0.05038    0.66837    2      1.2      4.7     diag
    4      0.400D-02      0.664D-03      -267.55955016    581.053407   -1.19669   -0.14066    0.71047    3      1.1      5.9     diag
    5      0.107D-02      0.355D-03      -267.56036471    581.021486   -1.18963   -0.19847    0.67793    4      1.2      7.0     diag
    6      0.508D-03      0.114D-03      -267.56052885    580.997264   -1.17054   -0.23286    0.68392    5      1.2      8.2     diag
    7      0.222D-03      0.601D-04      -267.56056819    580.999129   -1.15926   -0.24079    0.67711    6      1.2      9.4     diag
    8      0.122D-03      0.275D-04      -267.56057644    580.980829   -1.15627   -0.24675    0.67605    7      1.2     10.5     diag
    9      0.525D-04      0.103D-04      -267.56057822    580.986978   -1.15381   -0.24817    0.67450    8      1.2     11.7     diag
   10      0.275D-04      0.361D-05      -267.56057848    580.985478   -1.15295   -0.24806    0.67430    9      1.2     12.9     orth
   11      0.112D-04      0.137D-05      -267.56057852    580.985492   -1.15269   -0.24774    0.67419    9      1.2     14.0     diag
   12      0.449D-05      0.470D-06      -267.56057853    580.985231   -1.15267   -0.24771    0.67428    0      1.2     15.2     orth

 Final occupancy:  21

 !RHF STATE  1.1 Energy              -267.560578526518
 Nuclear energy                       195.39172238
 One-electron energy                 -753.44491660
 Two-electron energy                  290.49261570
 Virial quotient                       -1.00009635
 !RHF STATE  1.1 Dipole moment         -1.15266774    -0.24771362     0.67428138
 Dipole moment /Debye                  -2.92959728    -0.62958398     1.71374008

 Orbital energies:

         1.1          2.1          3.1          4.1          5.1          6.1          7.1          8.1          9.1         10.1
    -20.595200   -20.527442   -11.329084   -11.283321   -11.196958    -1.349578    -1.267497    -1.117285    -0.944242    -0.753674

        11.1         12.1         13.1         14.1         15.1         16.1         17.1         18.1         19.1         20.1
     -0.735764    -0.666456    -0.627655    -0.591565    -0.567337    -0.526625    -0.497606    -0.459041    -0.438901    -0.419681

        21.1         22.1         23.1
     -0.334931     0.009077     0.055508


 HOMO     21.1    -0.334931 =      -9.1139eV
 LUMO     22.1     0.009077 =       0.2470eV
 LUMO-HOMO         0.344008 =       9.3609eV


 **********************************************************************************************************************************
 DATASETS  * FILE   NREC   LENGTH (MB)   RECORD NAMES
              1      18       32.01       500      610      700      900      950      970     1000      129      960     1100   
                                          VAR    BASINP    GEOM    SYMINP    ZMAT    AOBASIS   BASIS     P2S    ABASIS      S 
                                         1400     1410     1200     1210     1080     1600     1650     1700   
                                           T        V       H0       H01     AOSYM     SMH    MOLCAS    OPER   

              2       4        4.17       700     1000      520     2100   
                                         GEOM     BASIS   MCVARS     RHF  

 PROGRAMS   *        TOTAL     DF-HF       INT
 CPU TIMES  *        15.80     15.22      0.47
 REAL TIME  *        18.25 SEC
 DISK USED  *        91.86 MB
 **********************************************************************************************************************************

 Basis set:  JKFIT                   
 Basis size:   888
 Attributes:
 Sphericals:   T
 Basis set:  MP2FIT                  
 Basis size:   544
 Attributes:
 Sphericals:   T
 Basis set:  RI                      
 Basis size:   888
 Attributes:
 Sphericals:   T

 World communicator: rank 0, size 1
 Shared-memory communicator: rank 0, size 1
 Current node: rank 0, 1 node(s) in total

 Restoring occupations from record    2100.2

 Program * PNO-LCCSD-F12   Authors:   H.-J. Werner (2012), M. Schwilk, Q. Ma (2016)

 Number of core orbitals:           5
 Number of closed-shell orbitals:  16
 Number of open-shell orbitals:     0
 Number of valence orbitals:       16
 Number of external orbitals:     201


 Calculation of CABS singles correction
 ======================================


 Molecular orbitals read from record     2100.2  Type=RHF/CANONICAL (state 1.1)
 Fock matrix read from record            2100.2  Type=RHF/TOTAL (state 1.1)
 Some Fock operators are calculated for F12-singles only.

 AO(A)-basis ORBITAL           loaded. Number of functions:     222
 RI(R)-basis RI                loaded. Number of functions:     888
 DF-basis JKFIT                loaded. Number of functions:     888

 Screening thresholds:   THRAO=  1.00D-10  THRMO=  1.00D-09  THRPROD=  1.00D-09
                         THRSW=  1.00D-05  THROV=  1.00D-12  THRAOF12= 1.00D-08

 CPU time for Fock operators                     17.19 sec

 Construction of ABS:
 Smallest eigenvalue of S          3.54E-07  (threshold= 1.00E-08)
 Ratio eigmin/eigmax               2.50E-08  (threshold= 1.00E-09)
 Smallest eigenvalue of S kept     3.54E-07  (threshold= 3.54E-07, 0 functions deleted, 888 kept)

 Construction of CABS:
 Smallest eigenvalue of S          1.57E-08  (threshold= 1.00E-08)
 Ratio eigmin/eigmax               1.57E-08  (threshold= 1.00E-09)
 Smallest eigenvalue of S kept     1.57E-08  (threshold= 1.57E-08, 0 functions deleted, 888 kept)

 CPU time for CABS singles                        0.47 sec

 CABS-singles contribution of  -0.02188776 patched into reference energy.
 New reference energy        -267.58246628

 Leaving lmp2-f12 by request (CABS_SINGLES < 0) after calculation of singles.

 iclose= 0  iweak= 0  rclose= 0.00  rweak= 0.00  thrclos= 1.0D-04  thrweak= 1.0D-05  open-shell=F

 Use_GA=T  Use_PAO=T  PAO_pairdom=F  PAO_trans=T  LOCFIT= 1  LOCRI=T  EIJDIP=2  PROJECT_K=T

 Threshold for small PAO norm:    0.00D+00
 Threshold for redundancy check:  1.00D-06

 OPTIONS FOR CCSD:   method= LCCSD     icepa= -1  icepac=-1  icepaw= 2  keepcls=1  maxcls=1  maxclt=2  maxwkt=2  do_mp2w=F
                     project_k=T    project_j=ALL    idexp4_close=0

 OPTIONS FOR SINGLES IN CCSD:   isexp4=  1  isexp5= 0  isexp6= 0  project_je=T  project_s=WEAK
                                includeGE= 1  includeKEKJ= 1  includeJEKJ= 0  includeJ= 2  undress=T  project_ke=2

 Molecular orbitals read from record     2100.2  Type=RHF/CANONICAL (state 1.1)
 Orbital energies read from record       2100.2  Type=RHF/CANONICAL (state 1.1)
 Fock matrix read from record            2100.2  Type=RHF/TOTAL (state 1.1)

  Reference energy                   -267.560578526517
  CABS singles correction              -0.021887757769
  New reference energy               -267.582466284286


 Computing intrinsic bond orbitals
 =================================

 Basis set MINAO-AUTO-PP generated.      Number of basis functions:   33 

 Polarized AO type:                A = (O Ot + (1-O)(1-Ot)) P12
 Orthogonalization method:         Symmetric (Loewdin)
 Localization functional:          L = sum[A,i] <i|n_A|i>^4 -> max

 Localization group 1:  16 orbitals, occupancy  2.000
 Iterative localization: IB/PM,    9 iter; Final gradient 0.60E-09

 Summary of localized orbital composition:   [THRPRINT= 0.020]

   ORB  GRP  ORB.ENERGY      CENTERS/CHARGES
     6   1    -0.949925      C  2   0.998   C  3   0.984
     7   1    -0.943791      O  1   1.333   C  2   0.648
     8   1    -0.904855      O  1   1.986
     9   1    -0.868991      C  4   1.007   C  3   0.950   H  9   0.022   (other: 0.021)
    10   1    -0.815334      O  5   1.327   H 13   0.667
    11   1    -0.758879      O  5   1.991
    12   1    -0.702583      C  4   1.238   H 12   0.749
    13   1    -0.695336      C  4   1.198   H 11   0.788
    14   1    -0.651035      C  2   1.090   H  8   0.889   (other: 0.021)
    15   1    -0.616462      C  2   1.087   H  7   0.890   (other: 0.023)
    16   1    -0.614281      O  5   1.835   H  9   0.126   C  3   0.024
    17   1    -0.607881      C  3   1.057   H 10   0.879   C  2   0.030   C  4   0.022
    18   1    -0.565839      O  5   1.627   C  4   0.321   C  3   0.028   (other: 0.024)
    19   1    -0.549771      O  1   1.221   H  6   0.752   (other: 0.027)
    20   1    -0.541330      C  3   1.268   H  9   0.496   C  4   0.161   C  2   0.036   (other: 0.039)
    21   1    -0.511546      O  1   1.969   (other: 0.031)

 Localizing core orbitals

 CPU Time for LMOs:                 18.09 sec. Elapsed time:    19.62 sec. Memory usage:     0.20 MW (max).
 CPU Time for PAOs:                  0.00 sec. Elapsed time:     0.00 sec. Memory usage:     0.25 MW (max).

 Distance criteria for pair classes:       RCLOSE= 0.0  RWEAK= 0.0  RDIST= 0.0  RVDIST=-1.0
 Connectivity criteria for pair classes:   ICLOSE=   0  IWEAK=   0  IDIST=   0  IVDIST=  -1

 Augmenting orbital domains by 2 shell(s) of neighboring atoms.  Minimum radius:     5.00
 Augmenting RI domains by 3 shell(s) of neighboring atoms.  Minimum radius:          7.00
 Augmenting DF domains by 2 shell(s) of neighboring atoms.  Minimum radius:          5.00

 Generating LMO domains. Method=COEFF  Threshold=1.00D-06

 Fitting truncated LMOs to exact LMOs

 Minimum LMO domain size:                222
 Maximum LMO domain size:                222
 Average LMO domain size:              222.0   (sparsity   0.00 %)

 CPU time for Fitlmo:                   0.00 sec.

 PAO orbital domain sizes:   126 (min),  213 (max),  177.0 (average)
 DF  orbital domain sizes:   308 (min),  521 (max),  432.5 (average)
 RI  orbital domain sizes:   750 (min),  888 (max),  856.4 (average)

 CPU Time for Domains:               0.01 sec. Elapsed time:     0.01 sec. Memory usage:     0.10 MW (max).

 Number of residual matrices on current processor:       16
 Number of amplitude matrices on current processor:     136

 Fitting basis MP2FIT loaded

 Threshold for block screening:     1.00D-05
 Threshold for integral screening:  1.00D-10

 CPU time for create_blocked_AO basis:                 0.01 sec, 222 functions, 13 blocks.
 CPU time for create_blocked_DF basis:                 0.03 sec, 544 functions, 21 blocks.
 CPU time for create_blocked_RI basis:                 0.04 sec, 888 functions, 13 blocks.

 Fitting basis center dimensions: min=   23, max=   72, average= 41.85
 Fitting basis block dimensions:  min=   1, max=  36, average= 25.90

 CPU time for project LMOs:                                    0.00 sec.
 CPU time for project PAOs:                                    0.00 sec.

 Screening PAOs with threshold      1.00D-06

 Minimum PAO vector length:              222
 Maximum PAO vector length:              222
 Average PAO vector length:            222.0  (sparsity  0.00 %)

 CPU time for cut/fit of PAO vectors:                          0.00 sec.

 CPU Time for Block_basis:           0.08 sec. Elapsed time:     0.08 sec. Memory usage:     0.14 MW (max).
 CPU Time for Orbitals(tot):        18.18 sec. Elapsed time:    19.71 sec. Memory usage:     0.14 MW (max).
 CPU Time for PAO integrals:         0.85 sec. Elapsed time:     0.86 sec. Memory usage:     1.30 MW (max).
 CPU Time for PAO integrals:         0.00 sec. Elapsed time:     0.00 sec. Memory usage:     0.66 MW (max).
 CPU Time for PAO amplitudes:        0.14 sec. Elapsed time:     0.15 sec. Memory usage:     1.29 MW (max).

 Generating OSVs using PAO(PERT) amplitudes, throsv= 1.0D-09

 Minimum OSV orbital domain size:         57
 Maximum OSV orbital domain size:        134
 Average OSV orbital domain size:       85.2

 CPU Time for OSV_generate:          0.06 sec. Elapsed time:     0.06 sec. Memory usage:     1.04 MW (max).

 Computing distant pair energies using multipole approximation up to order   3

 CPU time for computing multipole integrals (PAO/LMO):         0.19 sec
 CPU time for transforming integrals to OSV domains:           0.00 sec
 CPU time for distant pair energies:                           0.26 sec

 Distant pairs selected using the multipole order 3,  thrdist=1.0D-06  thrvdist=1.0D-07

 Semi-canonical distant pair energies, multipole-orders 1-3    0.00000000  0.00000000  0.00000000


 CPU Time for osv_mltp:              0.24 sec. Elapsed time:     0.26 sec. Memory usage:     0.39 MW (max).

 Number of strong pairs:                 136
 Number of close pairs:                    0
 Number of weak pairs:                     0
 Number of distant pairs:                  0  (treated by iterative multipole approximation, thrdist= 1.0D-06)
 Number of very distant pairs:             0  (treated by non-iterative multipole approximation, thrvdist= 1.0D-07)
 Total number of pairs in LMP2:          136

 Number of pairs per orbital (min, max, average):

 Strong pairs:              16    16    16.0
 Close pairs:                0     0     0.0
 Weak  pairs:                0     0     0.0
 Distant  pairs:             0     0     0.0
 Very distant pairs:         0     0     0.0

 CPU Time for Distribute_pairs:      0.00 sec. Elapsed time:     0.00 sec. Memory usage:     0.39 MW (max).

 Number of residual matrices on current processor:      136
 Number of amplitude matrices on current processor:     136
 F12 pair list with SKIPF=3, 136 pairs.

 Minimum OSV pair domain size:            57
 Maximum OSV pair domain size:           248
 Average OSV pair domain size:         160.5
 Total number of OSVs:                  1364
 Total number of OSV amplitudes:     3681616

 CPU Time for OSV_pairdom:           1.04 sec. Elapsed time:     1.05 sec. Memory usage:     4.00 MW (max).
 CPU Time for OSV integrals:         1.77 sec. Elapsed time:     2.01 sec. Memory usage:     8.43 MW (max).
 CPU Time for OSV_smatrix:           0.03 sec. Elapsed time:     0.02 sec. Memory usage:     7.51 MW (max).

 nosvmx= 248  nosvt= 1364  lens=         0  lenr=   3505193  lent=   3681616  leng=   3681616  lenw=   3610332  lenosv=     61504

 Generating PNOs using OSV(SC) amplitudes, THRPNO_EN=0.9970,  THRPNO_OCC=1.0D-08,  KEEP_DIAG=T  THRPNO_DIAG=0.0D+00

 Generating PNOs for LCCSD with thresholds: THREN_CC:  0.99000, THRPNO_CC:1.0D-07

                                                PNO-LMP2     PNO_LCCSD
 Minimum PNO domain size:                            43            23
 Maximum PNO domain size:                           105            65
 Average PNO domain size:                          67.3          42.1
 Total number of PNOs:                             9151          5725
 Total number of PNO amplitudes:                 632373
 Local number of PNO amplitudes:                 632373
 Length of local PNO residual:                   632373
 Length of local W-matrix:                      1507616

 Semi-canonical OSV correlation energy:     -0.98341744
 Semi-canonical PNO correlation energies:   -0.98326583   -0.98244373

 Semi-canonical domain correction:          -0.00015161   -0.00097371

 CPU Time for PNO_generate:          0.74 sec. Elapsed time:     0.75 sec. Memory usage:     8.52 MW (max).

 Local length of PNO overlap matrix for PNO-LMP2:    8881293  Number of blocks:    1920  number of pairs   136

 GA space for pno_smat:              8.88 MW (tot),              8.88 MW (min),              8.88 MW (max), using processor specific storage

 CPU Time for READ_OSV_SBUF:         0.01 sec. Elapsed time:     0.01 sec. Memory usage:     3.80 MW (max).
 CPU Time for PNO_SMAT:              0.32 sec. Elapsed time:     0.36 sec. Memory usage:     3.79 MW (max).

 Denominator shift:          0.2000

 ITER.      SQ.NORM     CORR.ENERGY   TOTAL ENERGY   ENERGY CHANGE     VAR    DIIS
   1      0.30578297    -1.00560437  -268.58807066    -1.00560437  0.39D-02   1  1
   2      0.32497181    -1.01884431  -268.60131059    -0.01323994  0.26D-03   2  2
   3      0.33860070    -1.01966786  -268.60213415    -0.00082355  0.16D-04   3  3
   4      0.34079966    -1.01970671  -268.60217299    -0.00003885  0.98D-06   4  4
   5      0.34091658    -1.01970949  -268.60217577    -0.00000278  0.69D-07   5  5
   6      0.34086411    -1.01970967  -268.60217596    -0.00000018  0.39D-08   6  6

                                            PNO-LMP2        PNO-LMP2_CORR
  PNO-LMP2 correlation energy          -1.019709674442    -1.019861280799
 !PNO-LMP2 total energy              -268.602175958728  -268.602327565085

 CPU Time for PNO-LMP2:              1.01 sec. Elapsed time:     1.30 sec. Memory usage:     4.59 MW (max).

 Computing the F12/3*A(LOC,FIX) energy correction
 ================================================
 Options for MP2-F12: THRF12=0.0E+00  THRVAL=0.1E-03  N_RI_BATCH=0
 Geminal basis:    OPTFULL  GEM_TYPE=SLATER  BETA=1.0  NGEM=6

 Optimizing Gaussian exponents for each gem_beta

 Geminal optimization for beta= 1.0000
 Weight function:   m=0, omega= 1.4646

 Augmented Hessian optimization of geminal fit. Trust ratio= 0.40000
 Convergence reached after   2 iterations. Final gradient= 8.53D-16, Step= 4.26D-06, Delta= 1.28D-09

 Alpha:                 0.19532     0.81920     2.85917     9.50073    35.69989   197.79328
 Coeff:                 0.27070     0.30552     0.18297     0.10986     0.06810     0.04224

 Screened 136 pairs with threshold 0.0E+00, 136 pairs actually used.

  F12(PNO) correction                  -0.221037903397
  PNO-LMP2-F12(PNO) corr. energy       -1.240747577840
 !PNO-LMP2-F12(PNO) total energy     -268.823213862126

 CPU Time for F12_energy:           48.74 sec. Elapsed time:    49.59 sec. Memory usage:    10.72 MW (max).

 PNO-LMP2-F12 energy contributions
 =================================
                            OSV-LMP2(SC)     PNO-LMP2     PNO-SCS-LMP2   F12 contrib.  PNO-LMP2-F12  PNO-SCS-LMP2-F12  %(PNO/OSV)  AVDOM(PNO)
 Strong pair energy:        -0.98341744    -1.01970967    -0.99863201    -0.22103790    -1.24074758    -1.24126090       103.69       67.3
 Close pair energy:          0.00000000     0.00000000     0.00000000     0.00000000     0.00000000     0.00000000         0.00        0.0
 Weak pair energy :          0.00000000     0.00000000     0.00000000     0.00000000     0.00000000     0.00000000         0.00        0.0
 Distant pair energy:        0.00000000     0.00000000     0.00000000     0.00000000     0.00000000     0.00000000         0.00        0.0
 Total correl. energy:      -0.98341744    -1.01970967    -0.99863201    -0.22103790    -1.24074758    -1.24126090       103.69       67.3

 GA space for pno_smat:              3.44 MW (tot),              3.44 MW (min),              3.44 MW (max), using processor specific storage

 CPU Time for READ_OSV_SBUF:         0.02 sec. Elapsed time:     0.03 sec. Memory usage:     2.26 MW (max).
 CPU Time for PNO_SMAT:              0.22 sec. Elapsed time:     0.23 sec. Memory usage:     2.25 MW (max).

 Denominator shift:          0.2000

 ITER.      SQ.NORM     CORR.ENERGY   TOTAL ENERGY   ENERGY CHANGE     VAR    DIIS
   1      0.34054844    -1.01814648  -268.60061277    -1.01814648  0.12D-04   1  1
   2      0.34010819    -1.01823764  -268.60070393    -0.00009116  0.16D-06   2  2
   3      0.33988061    -1.01823838  -268.60070466    -0.00000073  0.55D-08   3  3

 LMP2 results with LCCSD domains:
 ================================
                                            PNO-LMP2        PNO-LMP2_CORR
  PNO-LMP2 correlation energy          -1.018238378093    -1.019861280799
  PNO-LMP2 total energy              -268.600704662378  -268.602327565085
  F12(PNO) correction                  -0.222284422542
  PNO-LMP2-F12 correlation energy      -1.240522800635
  PNO-LMP2-F12 total energy          -268.822989084921

  PNO-LMP2-F12 domain correction       -0.000224777205

 CPU Time for PNO-LMP2(tot):        55.37 sec. Elapsed time:    56.90 sec. Memory usage:    12.70 MW (max).

 Energy thresholds for pair classes:  THRCLOSE=1.00D-04  THRWEAK= 1.00D-05  THRDISTC=0.00D+00

 Strong and close pairs optimized in LCCSD, close pair residuals are approximated (keepcls=1).

 Number of optimized pairs:         136
 Number of strong pairs:            128
 Number of close pairs:               8
 Number of weak pairs:                0
 Total number of pairs:             136

 Length of pair-specific S-blocks:    64.89 MW,  length of unique S-blocks    16.26 MW

 CPU Time for LCC_opdom:             0.04 sec. Elapsed time:     0.05 sec. Memory usage:     0.33 MW (max).
 CPU Time for LCC_float:             0.01 sec. Elapsed time:     0.00 sec. Memory usage:     0.14 MW (max).

 CPU Time for LCC_opdom:             0.03 sec. Elapsed time:     0.04 sec. Memory usage:     0.33 MW (max).
 CPU Time for LCC_load:              0.01 sec. Elapsed time:     0.01 sec. Memory usage:     1.77 MW (max).

 Estimated GA usage of PNO-LCCSD-F12 integrals:                  0.00 MW
 Maximum GA usage after allocating GAs for CCSD integrals:       0.00 MW

 CPU Time for CCSD integrals:      100.34 sec. Elapsed time:   103.70 sec. Memory usage:     9.87 MW (max).

 GA space for pno_smat:             16.26 MW (tot),             16.26 MW (min),             16.26 MW (max), using node specific storage
 CPU Time for OSV_SMAT_LCC:          0.03 sec. Elapsed time:     0.07 sec. Memory usage:    11.07 MW (max).
 CPU Time for READ_OSV_SBUF:         0.00 sec. Elapsed time:     0.00 sec. Memory usage:    11.07 MW (max).
 CPU Time for PNO_SMAT_LCC:          1.09 sec. Elapsed time:     1.19 sec. Memory usage:    10.10 MW (max).

 Current GA usage:                   0.00 MW.  Maximum GA usage up to this point:            0.00 MW

 Solving PNO-LCCSD equations

 K-Operators in non-linear terms are projected

 Close pairs are approximated (keepcls=1, max_ijkl=0, skip_ijkl=0, maxik=0)

 Weak pairs pairs are treated by CEPA(2)

 Denominator shifts:     0.15 (singles),  0.20 (doubles)

 ITER.      SQ.NORM     CORR.ENERGY   TOTAL ENERGY   ENERGY CHANGE     VAR        VART1     DIIS     TIME
    1     0.34954080    -1.18976306  -268.77222934     0.05075974    0.50D-02    0.97D-02   1  1     9.85
    2     0.32908942    -1.22633649  -268.80880278    -0.03657343    0.11D-02    0.33D-03   2  2    19.10
    3     0.36607112    -1.23194424  -268.81441053    -0.00560775    0.18D-03    0.22D-03   3  3    28.45
    4     0.37969786    -1.23351187  -268.81597815    -0.00156763    0.44D-04    0.46D-04   4  4    37.91
    5     0.38670303    -1.23402047  -268.81648675    -0.00050860    0.84D-05    0.14D-04   5  5    47.06
    6     0.38922078    -1.23416965  -268.81663593    -0.00014918    0.15D-05    0.51D-05   6  6    56.13
    7     0.39044050    -1.23427868  -268.81674496    -0.00010903    0.39D-06    0.12D-05   7  7    65.20
    8     0.39096579    -1.23430307  -268.81676936    -0.00002439    0.92D-07    0.29D-06   8  8    74.36
    9     0.39106085    -1.23430906  -268.81677534    -0.00000599    0.24D-07    0.72D-07   1  8    83.42
   10     0.39110462    -1.23431464  -268.81678093    -0.00000558    0.64D-08    0.23D-07   2  8    92.88
   11     0.39109382    -1.23431512  -268.81678141    -0.00000048    0.21D-08    0.77D-08   3  8   102.17

 Convergence reached

  T1 diagnostic   0.01864
  D1 diagnostic   0.07538
   
  Reference energy                   -267.560578526517
  CABS singles correction              -0.021887757769
  New reference energy               -267.582466284286

  Correlation contributions without domain correction:

  PNO-LCCSD-F12 singles energy          0.000805429573
  PNO-LCCSD-F12a strong pair energy    -1.234539341355
  PNO-LCCSD-F12b strong pair energy    -1.207284401502
  PNO-LCCSD-F12 close pair energy      -0.000581210095
  PNO-CEPA(2)-F12 weak pair energy      0.000000000000
  PNO-SCS-LMP2 distant pair energy      0.000000000000

  Results including domain correction:

  PNO-LMP2-F12 correction              -0.000224777205
  PNO-LCCSD-F12a correlation energy    -1.234539899082
  PNO-LCCSD-F12b correlation energy    -1.207284959228

 !PNO-LCCSD-F12a total energy        -268.817006183368
 !PNO-LCCSD-F12b total energy        -268.789751243514

 Maximum stack memory usage in PNO-LCCSD iterations: 11.64 MW
 Maximum GA memory usage up to this point: .00 MW
 Maximum local disk usage in MB: 1306.52 (current)   1306.52 (maximum)   1306.52 (average)
 Maximum local disk usage per node: 1306.52 MB

 CPU Time for PNO_LCCSD(it):        90.78 sec. Elapsed time:   102.19 sec. Memory usage:    10.15 MW (max).

 GA_Put processed 187.61 MW globally, average elapsed time per process: 1.04 sec
 GA_Get processed 18551.15 MW globally, average elapsed time per process: 17.72 sec

 REMARK: Memory usage printed may not be correct.
 CPU Time for LCCSD(tot):          192.33 sec. Elapsed time:   207.56 sec. Memory usage:    12.70 MW (max).

 Direct file usage                 196.23 MB (local),          196.23 MB (max),            196.23 MB (tot)

 Max. memory usage (overall):       12.70 MW (local),           12.70 MW (max),             12.70 MW (tot)
 Max. GA usage (overall):            0.00 MW (local),            0.00 MW (max),              0.00 MW (tot)
 Max. memory+GA usage:              12.70 MW (local),           12.70 MW (max),             12.70 MW (tot)


 **********************************************************************************************************************************
 DATASETS  * FILE   NREC   LENGTH (MB)   RECORD NAMES
              1      19       32.05       500      610      700      900      950      970     1000      129      960     1100   
                                          VAR    BASINP    GEOM    SYMINP    ZMAT    AOBASIS   BASIS     P2S    ABASIS      S 
                                         1400     1410     1200     1210     1080     1600     1650     1700      960(1)
                                           T        V       H0       H01     AOSYM     SMH    MOLCAS    OPER    ABASIS    

              2       5        4.97       700     1000      520     2100     7360   
                                         GEOM     BASIS   MCVARS     RHF    F12ABS    

 PROGRAMS   *        TOTAL LCCSD-F12     DF-HF       INT
 CPU TIMES  *       281.78    265.95     15.22      0.47
 REAL TIME  *       302.54 SEC
 DISK USED  *       604.64 MB
 **********************************************************************************************************************************

 PNO-LCCSD-F12/cc-pVDZ-F12 energy=   -268.789751243514

   PNO-LCCSD-F12           DF-HF
   -268.81700618   -267.56057853
 **********************************************************************************************************************************
 Molpro calculation terminated
