
 Primary working directories    : /var/tmp/pbs.368349.bp1/molpro.jYE2lRObrv
 Secondary working directories  : /var/tmp/pbs.368349.bp1/molpro.jYE2lRObrv
 Wavefunction directory         : /home/lb17101/molpro_test/inp/lowmem/
 Main file repository           : /home/lb17101/molpro_test/inp/lowmem/

 id        : uob

 Nodes                         nprocs
 bp1-13-16-01.data.bp.acrc.priv    1

 Using customized tuning parameters: mindgm=1; mindgv=20; mindgc=4; mindgr=1; noblas=0; minvec=7
 default implementation of scratch files=df  


 Variables initialized (934), CPU time= 0.00 sec
 geomtyp=xyz
 nosym
 noorient
 geometry={
  C      -1.823639944849       0.283336659566       0.261829355759
  C      -0.511970621848      -0.450222548386       0.075378985519
  O      -0.001208675343      -0.316432936271      -1.250809645401
  C       0.652994988676       0.336895996758       0.666892416384
  O       2.376340260045      -0.606622188589      -0.658638614409
  H      -1.725774119799       1.314519063485      -0.251472831285
  H      -2.140804862933       0.452681772603       1.313688629466
  H      -2.644717465291      -0.206782854241      -0.323318442727
  H      -0.505595249154      -1.474461792874       0.376960730184
  H       1.373489331199      -0.736997440116      -1.057055937078
  H       0.756009475318       1.387826730146       0.287614648104
  H       1.396654971538      -0.110494175162       1.326100926326
  H       2.442470167856       0.319502233246      -1.064950524831
 }
 basis={
 default=vdz-f12
 set,jkfit,context=jkfit
 default,avtz
 set,mp2fit,context=mp2fit
 default,avdz
 set,ri,context=jkfit
 default,avtz
 }
 explicit,ri_basis=ri,df_basis=mp2fit,df_basis_exch=jkfit
 df-hf,basis=jkfit
 pno-lccsd-f12,cabs_singles=1
 Commands  initialized (763), CPU time= 0.00 sec, 617 directives.
 Default parameters read. Elapsed time= 0.11 sec

 Checking input...
 Passed
1


                                         ***  PROGRAM SYSTEM MOLPRO  ***
                                       Copyright, TTI GmbH Stuttgart, 2015
                                    Version 2019.2 linked Oct 25 2019 22:50:27


 **********************************************************************************************************************************
 LABEL *                                                                                 
  64 bit serial version                                                                  DATE: 23-Sep-20          TIME: 02:05:44  
 **********************************************************************************************************************************

 SHA1:             8dbd9ae1082e4ce945b0f27595c9eb2d4aa09004
 **********************************************************************************************************************************
 SETTING GEOMTYP        =    XYZ

 Variable memory set to 1024000000 words,  buffer space 

 ZSYMEL=NOSYM

 SETTING BASIS          =    VDZ-F12


 Recomputing integrals since basis changed


 Using spherical harmonics

 Library entry C      S cc-pVDZ-F12          selected for orbital group  1
 Library entry C      P cc-pVDZ-F12          selected for orbital group  1
 Library entry C      D cc-pVDZ-F12          selected for orbital group  1
 Library entry O      S cc-pVDZ-F12          selected for orbital group  2
 Library entry O      P cc-pVDZ-F12          selected for orbital group  2
 Library entry O      D cc-pVDZ-F12          selected for orbital group  2
 Library entry H      S cc-pVDZ-F12          selected for orbital group  5
 Library entry H      P cc-pVDZ-F12          selected for orbital group  5


 PROGRAM * SEWARD (Integral evaluation for generally contracted gaussian basis sets)     Author: Roland Lindh, 1990

 Geometry written to block  1 of record 700


 Point group  C1  



 ATOMIC COORDINATES

 NR  ATOM    CHARGE       X              Y              Z

   1  C       6.00   -3.446180046    0.535428688    0.494785774
   2  C       6.00   -0.967484259   -0.850797312    0.142445638
   3  O       8.00   -0.002284065   -0.597971586   -2.363687664
   4  C       6.00    1.233981689    0.636641166    1.260244022
   5  O       8.00    4.490632270   -1.146349798   -1.244646596
   6  H       1.00   -3.261240439    2.484081016   -0.475214779
   7  H       1.00   -4.045534877    0.855444572    2.482511723
   8  H       1.00   -4.997791686   -0.390762962   -0.610983308
   9  H       1.00   -0.955436551   -2.786328970    0.712352540
  10  H       1.00    2.595518671   -1.392723316   -1.997546219
  11  H       1.00    1.428650856    2.622612428    0.543512914
  12  H       1.00    2.639295387   -0.208803729    2.505967564
  13  H       1.00    4.615599685    0.603771717   -2.012464828

 Bond lengths in Bohr (Angstrom)

 1-2  2.861764996  1-6  2.184570810  1-7  2.100640576  1-8  2.118502990  2-3  2.697449979
     ( 1.514380819)     ( 1.156025088)     ( 1.111611121)     ( 1.121063503)     ( 1.427429056)

  2- 4  2.882429318   2- 9  2.017726895   4-11  2.120302200   4-12  2.059492851   5-10  2.054023687
       ( 1.525315907)       ( 1.067735091)       ( 1.122015604)       ( 1.089836683)       ( 1.086942526)

  5-13  1.915225054
       ( 1.013493452)

 Bond angles

  1-2-3  112.26611623   1-2-4  111.33425057   1-2-9  115.78906988   2-1-6  107.70347569

  2- 1- 7  115.93960065   2- 1- 8  110.99790714   2- 4-11  114.98473315   2- 4-12  122.94830653

  3-2-4   92.21445732   3-2-9  110.49895044   4-2-9  112.39075571   6-1-7  107.96405425

  6- 1- 8  102.72196539   7- 1- 8  110.58109735  10- 5-13   91.30977366  11- 4-12  121.75715431

 NUCLEAR CHARGE:                   42
 NUMBER OF PRIMITIVE AOS:         293
 NUMBER OF SYMMETRY AOS:          283
 NUMBER OF CONTRACTIONS:          222   (  222A   )
 NUMBER OF CORE ORBITALS:           5   (    5A   )
 NUMBER OF VALENCE ORBITALS:       28   (   28A   )


 NUCLEAR REPULSION ENERGY  185.62484681


 Basis set:  JKFIT                   
 Basis size:   888
 Attributes:
 Sphericals:   T
 Basis set:  MP2FIT                  
 Basis size:   544
 Attributes:
 Sphericals:   T
 Basis set:  RI                      
 Basis size:   888
 Attributes:
 Sphericals:   T

 **********************************************************************************************************************************


 Eigenvalues of metric

         1 0.106E-03 0.257E-03 0.441E-03 0.644E-03 0.853E-03 0.105E-02 0.109E-02 0.171E-02


 OPERATOR DM      FOR CENTER  0  COORDINATES:    0.000000    0.000000    0.000000


 **********************************************************************************************************************************
 DATASETS  * FILE   NREC   LENGTH (MB)   RECORD NAMES
              1      18       32.01       500      610      700      900      950      970     1000      129      960     1100   
                                          VAR    BASINP    GEOM    SYMINP    ZMAT    AOBASIS   BASIS     P2S    ABASIS      S 
                                         1400     1410     1200     1210     1080     1600     1650     1700   
                                           T        V       H0       H01     AOSYM     SMH    MOLCAS    OPER   

 PROGRAMS   *        TOTAL       INT
 CPU TIMES  *         0.53      0.42
 REAL TIME  *         1.56 SEC
 DISK USED  *        32.54 MB
 **********************************************************************************************************************************


 PROGRAM * RHF-SCF (CLOSED SHELL)       Authors: W. Meyer, H.-J. Werner


 NUMBER OF ELECTRONS:      21+   21-    SPACE SYMMETRY=1    SPIN SYMMETRY: Singlet 
 CONVERGENCE THRESHOLDS:    1.00E-05 (Density)    1.00E-07 (Energy)
 INTEGRAL THRESHOLDS:       1.00E-11 (Initial)    1.00E-11 (Final)
 MAX. NUMBER OF ITERATIONS:       60
 INTERPOLATION TYPE:            DIIS
 INTERPOLATION STEPS:              2 (START)      1 (STEP)
 LEVEL SHIFTS:                  0.00 (CLOSED)  0.00 (OPEN) 





 Orbital guess generated from atomic densities. Full valence occupancy:   33
 Using density fitting in orbital guess

 Coulomb and exchange fitting
 Thresholds for fitting:       THRAO_COUL= 1.0D-14    THRAO_EXCH= 1.0D-12    THRMO= 1.0D-11    THRPROD= 1.0D-11    THRASM= 1.0D-11
                               THR2HLF=    1.0D-11

 Molecular orbital dump at record        2100.2

 Initial occupancy:  21

 ITERATION   DDIFF            GRAD            ENERGY        2-EL.EN.            DIPOLE MOMENTS         DIIS   CPU(IT)  CPU(TOT)  ORB.
    1      0.000D+00      0.000D+00      -267.76305251    564.797105   -0.56059    1.64276    2.40801    0      1.0      2.2     start
    2      0.000D+00      0.574D-02      -267.83285928    558.521025   -0.55893    0.63841    0.78571    1      1.0      3.3     diag
    3      0.895D-02      0.455D-02      -267.90026710    561.913872   -0.49224    1.03673    1.78288    2      1.0      4.3     diag
    4      0.390D-02      0.797D-03      -267.90347312    561.661438   -0.53312    1.04012    1.68063    3      1.0      5.3     diag
    5      0.102D-02      0.371D-03      -267.90419071    561.635615   -0.52132    1.02903    1.73115    4      1.0      6.3     diag
    6      0.438D-03      0.120D-03      -267.90433453    561.642982   -0.53133    1.03430    1.73336    5      1.0      7.3     diag
    7      0.196D-03      0.454D-04      -267.90436868    561.631776   -0.53115    1.03589    1.73768    6      1.0      8.4     diag
    8      0.108D-03      0.176D-04      -267.90437412    561.635464   -0.53209    1.03710    1.73883    7      1.0      9.4     diag
    9      0.438D-04      0.659D-05      -267.90437504    561.636763   -0.53130    1.03757    1.73965    8      1.0     10.4     diag
   10      0.185D-04      0.273D-05      -267.90437521    561.636434   -0.53090    1.03769    1.73972    9      1.0     11.4     orth
   11      0.764D-05      0.118D-05      -267.90437524    561.636896   -0.53066    1.03784    1.73988    9      1.0     12.4     diag
   12      0.348D-05      0.640D-06      -267.90437525    561.636533   -0.53065    1.03783    1.73986    0      1.0     13.5     orth

 Final occupancy:  21

 !RHF STATE  1.1 Energy              -267.904375248760
 Nuclear energy                       185.62484681
 One-electron energy                 -734.34748866
 Two-electron energy                  280.81826660
 Virial quotient                       -1.00278956
 !RHF STATE  1.1 Dipole moment         -0.53065297     1.03783133     1.73985774
 Dipole moment /Debye                  -1.34869697     2.63773136     4.42198762

 Orbital energies:

         1.1          2.1          3.1          4.1          5.1          6.1          7.1          8.1          9.1         10.1
    -20.532913   -20.498946   -11.387313   -11.304905   -11.244753    -1.312535    -1.266782    -1.039376    -0.959171    -0.814944

        11.1         12.1         13.1         14.1         15.1         16.1         17.1         18.1         19.1         20.1
     -0.708871    -0.656193    -0.619597    -0.600037    -0.571908    -0.560728    -0.518825    -0.500892    -0.469363    -0.405950

        21.1         22.1         23.1
     -0.381475     0.010866     0.048334


 HOMO     21.1    -0.381475 =     -10.3805eV
 LUMO     22.1     0.010866 =       0.2957eV
 LUMO-HOMO         0.392341 =      10.6761eV


 **********************************************************************************************************************************
 DATASETS  * FILE   NREC   LENGTH (MB)   RECORD NAMES
              1      18       32.01       500      610      700      900      950      970     1000      129      960     1100   
                                          VAR    BASINP    GEOM    SYMINP    ZMAT    AOBASIS   BASIS     P2S    ABASIS      S 
                                         1400     1410     1200     1210     1080     1600     1650     1700   
                                           T        V       H0       H01     AOSYM     SMH    MOLCAS    OPER   

              2       4        4.17       700     1000      520     2100   
                                         GEOM     BASIS   MCVARS     RHF  

 PROGRAMS   *        TOTAL     DF-HF       INT
 CPU TIMES  *        14.03     13.50      0.42
 REAL TIME  *        16.36 SEC
 DISK USED  *        91.86 MB
 **********************************************************************************************************************************

 Basis set:  JKFIT                   
 Basis size:   888
 Attributes:
 Sphericals:   T
 Basis set:  MP2FIT                  
 Basis size:   544
 Attributes:
 Sphericals:   T
 Basis set:  RI                      
 Basis size:   888
 Attributes:
 Sphericals:   T

 World communicator: rank 0, size 1
 Shared-memory communicator: rank 0, size 1
 Current node: rank 0, 1 node(s) in total

 Restoring occupations from record    2100.2

 Program * PNO-LCCSD-F12   Authors:   H.-J. Werner (2012), M. Schwilk, Q. Ma (2016)

 Number of core orbitals:           5
 Number of closed-shell orbitals:  16
 Number of open-shell orbitals:     0
 Number of valence orbitals:       16
 Number of external orbitals:     201


 Calculation of CABS singles correction
 ======================================


 Molecular orbitals read from record     2100.2  Type=RHF/CANONICAL (state 1.1)
 Fock matrix read from record            2100.2  Type=RHF/TOTAL (state 1.1)
 Some Fock operators are calculated for F12-singles only.

 AO(A)-basis ORBITAL           loaded. Number of functions:     222
 RI(R)-basis RI                loaded. Number of functions:     888
 DF-basis JKFIT                loaded. Number of functions:     888

 Screening thresholds:   THRAO=  1.00D-10  THRMO=  1.00D-09  THRPROD=  1.00D-09
                         THRSW=  1.00D-05  THROV=  1.00D-12  THRAOF12= 1.00D-08

 CPU time for Fock operators                     15.19 sec

 Construction of ABS:
 Smallest eigenvalue of S          1.57E-06  (threshold= 1.00E-08)
 Ratio eigmin/eigmax               1.20E-07  (threshold= 1.00E-09)
 Smallest eigenvalue of S kept     1.57E-06  (threshold= 1.57E-06, 0 functions deleted, 888 kept)

 Construction of CABS:
 Smallest eigenvalue of S          1.35E-08  (threshold= 1.00E-08)
 Ratio eigmin/eigmax               1.35E-08  (threshold= 1.00E-09)
 Smallest eigenvalue of S kept     1.35E-08  (threshold= 1.35E-08, 0 functions deleted, 888 kept)

 CPU time for CABS singles                        0.44 sec

 CABS-singles contribution of  -0.02009477 patched into reference energy.
 New reference energy        -267.92447002

 Leaving lmp2-f12 by request (CABS_SINGLES < 0) after calculation of singles.

 iclose= 0  iweak= 0  rclose= 0.00  rweak= 0.00  thrclos= 1.0D-04  thrweak= 1.0D-05  open-shell=F

 Use_GA=T  Use_PAO=T  PAO_pairdom=F  PAO_trans=T  LOCFIT= 1  LOCRI=T  EIJDIP=2  PROJECT_K=T

 Threshold for small PAO norm:    0.00D+00
 Threshold for redundancy check:  1.00D-06

 OPTIONS FOR CCSD:   method= LCCSD     icepa= -1  icepac=-1  icepaw= 2  keepcls=1  maxcls=1  maxclt=2  maxwkt=2  do_mp2w=F
                     project_k=T    project_j=ALL    idexp4_close=0

 OPTIONS FOR SINGLES IN CCSD:   isexp4=  1  isexp5= 0  isexp6= 0  project_je=T  project_s=WEAK
                                includeGE= 1  includeKEKJ= 1  includeJEKJ= 0  includeJ= 2  undress=T  project_ke=2

 Molecular orbitals read from record     2100.2  Type=RHF/CANONICAL (state 1.1)
 Orbital energies read from record       2100.2  Type=RHF/CANONICAL (state 1.1)
 Fock matrix read from record            2100.2  Type=RHF/TOTAL (state 1.1)

  Reference energy                   -267.904375248759
  CABS singles correction              -0.020094768579
  New reference energy               -267.924470017339


 Computing intrinsic bond orbitals
 =================================

 Basis set MINAO-AUTO-PP generated.      Number of basis functions:   33 

 Polarized AO type:                A = (O Ot + (1-O)(1-Ot)) P12
 Orthogonalization method:         Symmetric (Loewdin)
 Localization functional:          L = sum[A,i] <i|n_A|i>^4 -> max

 Localization group 1:  16 orbitals, occupancy  2.000
 Iterative localization: IB/PM,    7 iter; Final gradient 0.22E-08

 Summary of localized orbital composition:   [THRPRINT= 0.020]

   ORB  GRP  ORB.ENERGY      CENTERS/CHARGES
     6   1    -0.886770      O  5   1.330   H 13   0.665
     7   1    -0.866338      O  3   1.140   C  2   0.798   C  4   0.055
     8   1    -0.800686      O  5   1.527   H 10   0.461
     9   1    -0.786704      C  4   1.151   C  2   0.841
    10   1    -0.784467      C  4   1.224   H 12   0.773
    11   1    -0.768819      C  4   1.201   H 11   0.794
    12   1    -0.762306      O  5   1.998
    13   1    -0.756594      O  3   1.979   (other: 0.021)
    14   1    -0.750518      C  2   1.006   C  1   0.980
    15   1    -0.713950      C  2   1.140   H  9   0.843
    16   1    -0.670167      C  1   1.114   H  7   0.878
    17   1    -0.649568      C  1   1.137   H  8   0.850
    18   1    -0.630860      C  1   1.110   H  6   0.878
    19   1    -0.572966      O  3   1.869   C  4   0.057   H 10   0.042   (other: 0.032)
    20   1    -0.510477      O  3   1.742   H 10   0.115   C  4   0.089   C  2   0.023   (other: 0.031)
    21   1    -0.475460      O  5   1.914   C  4   0.080

 Localizing core orbitals

 CPU Time for LMOs:                 16.06 sec. Elapsed time:    17.23 sec. Memory usage:     0.20 MW (max).
 CPU Time for PAOs:                  0.00 sec. Elapsed time:     0.00 sec. Memory usage:     0.25 MW (max).

 Distance criteria for pair classes:       RCLOSE= 0.0  RWEAK= 0.0  RDIST= 0.0  RVDIST=-1.0
 Connectivity criteria for pair classes:   ICLOSE=   0  IWEAK=   0  IDIST=   0  IVDIST=  -1

 Augmenting orbital domains by 2 shell(s) of neighboring atoms.  Minimum radius:     5.00
 Augmenting RI domains by 3 shell(s) of neighboring atoms.  Minimum radius:          7.00
 Augmenting DF domains by 2 shell(s) of neighboring atoms.  Minimum radius:          5.00

 Generating LMO domains. Method=COEFF  Threshold=1.00D-06

 Fitting truncated LMOs to exact LMOs

 Minimum LMO domain size:                222
 Maximum LMO domain size:                222
 Average LMO domain size:              222.0   (sparsity   0.00 %)

 CPU time for Fitlmo:                   0.00 sec.

 PAO orbital domain sizes:   117 (min),  222 (max),  174.8 (average)
 DF  orbital domain sizes:   285 (min),  544 (max),  426.8 (average)
 RI  orbital domain sizes:   646 (min),  888 (max),  805.9 (average)

 CPU Time for Domains:               0.00 sec. Elapsed time:     0.00 sec. Memory usage:     0.10 MW (max).

 Number of residual matrices on current processor:       16
 Number of amplitude matrices on current processor:     136

 Fitting basis MP2FIT loaded

 Threshold for block screening:     1.00D-05
 Threshold for integral screening:  1.00D-10

 CPU time for create_blocked_AO basis:                 0.01 sec, 222 functions, 13 blocks.
 CPU time for create_blocked_DF basis:                 0.03 sec, 544 functions, 21 blocks.
 CPU time for create_blocked_RI basis:                 0.03 sec, 888 functions, 13 blocks.

 Fitting basis center dimensions: min=   23, max=   72, average= 41.85
 Fitting basis block dimensions:  min=   1, max=  36, average= 25.90

 CPU time for project LMOs:                                    0.00 sec.
 CPU time for project PAOs:                                    0.00 sec.

 Screening PAOs with threshold      1.00D-06

 Minimum PAO vector length:              222
 Maximum PAO vector length:              222
 Average PAO vector length:            222.0  (sparsity  0.00 %)

 CPU time for cut/fit of PAO vectors:                          0.00 sec.

 CPU Time for Block_basis:           0.07 sec. Elapsed time:     0.07 sec. Memory usage:     0.14 MW (max).
 CPU Time for Orbitals(tot):        16.13 sec. Elapsed time:    17.30 sec. Memory usage:     0.14 MW (max).
 CPU Time for PAO integrals:         0.76 sec. Elapsed time:     0.79 sec. Memory usage:     1.33 MW (max).
 CPU Time for PAO integrals:         0.00 sec. Elapsed time:     0.00 sec. Memory usage:     0.65 MW (max).
 CPU Time for PAO amplitudes:        0.13 sec. Elapsed time:     0.13 sec. Memory usage:     1.28 MW (max).

 Generating OSVs using PAO(PERT) amplitudes, throsv= 1.0D-09

 Minimum OSV orbital domain size:         50
 Maximum OSV orbital domain size:        109
 Average OSV orbital domain size:       75.2

 CPU Time for OSV_generate:          0.05 sec. Elapsed time:     0.05 sec. Memory usage:     1.01 MW (max).

 Computing distant pair energies using multipole approximation up to order   3

 CPU time for computing multipole integrals (PAO/LMO):         0.17 sec
 CPU time for transforming integrals to OSV domains:           0.00 sec
 CPU time for distant pair energies:                           0.22 sec

 Distant pairs selected using the multipole order 3,  thrdist=1.0D-06  thrvdist=1.0D-07

 Semi-canonical distant pair energies, multipole-orders 1-3    0.00000000  0.00000000  0.00000000


 CPU Time for osv_mltp:              0.19 sec. Elapsed time:     0.22 sec. Memory usage:     0.36 MW (max).

 Number of strong pairs:                 136
 Number of close pairs:                    0
 Number of weak pairs:                     0
 Number of distant pairs:                  0  (treated by iterative multipole approximation, thrdist= 1.0D-06)
 Number of very distant pairs:             0  (treated by non-iterative multipole approximation, thrvdist= 1.0D-07)
 Total number of pairs in LMP2:          136

 Number of pairs per orbital (min, max, average):

 Strong pairs:              16    16    16.0
 Close pairs:                0     0     0.0
 Weak  pairs:                0     0     0.0
 Distant  pairs:             0     0     0.0
 Very distant pairs:         0     0     0.0

 CPU Time for Distribute_pairs:      0.00 sec. Elapsed time:     0.00 sec. Memory usage:     0.36 MW (max).

 Number of residual matrices on current processor:      136
 Number of amplitude matrices on current processor:     136
 F12 pair list with SKIPF=3, 136 pairs.

 Minimum OSV pair domain size:            50
 Maximum OSV pair domain size:           204
 Average OSV pair domain size:         141.6
 Total number of OSVs:                  1204
 Total number of OSV amplitudes:     2873866

 CPU Time for OSV_pairdom:           0.73 sec. Elapsed time:     0.77 sec. Memory usage:     3.23 MW (max).
 CPU Time for OSV integrals:         1.63 sec. Elapsed time:     1.66 sec. Memory usage:     6.97 MW (max).
 CPU Time for OSV_smatrix:           0.02 sec. Elapsed time:     0.04 sec. Memory usage:     6.07 MW (max).

 nosvmx= 204  nosvt= 1204  lens=         0  lenr=   2835703  lent=   2873866  leng=   2873866  lenw=   2873344  lenosv=     41616

 Generating PNOs using OSV(SC) amplitudes, THRPNO_EN=0.9970,  THRPNO_OCC=1.0D-08,  KEEP_DIAG=T  THRPNO_DIAG=0.0D+00

 Generating PNOs for LCCSD with thresholds: THREN_CC:  0.99000, THRPNO_CC:1.0D-07

                                                PNO-LMP2     PNO_LCCSD
 Minimum PNO domain size:                            36            21
 Maximum PNO domain size:                            84            53
 Average PNO domain size:                          57.6          36.4
 Total number of PNOs:                             7834          4951
 Total number of PNO amplitudes:                 466728
 Local number of PNO amplitudes:                 466728
 Length of local PNO residual:                   466728
 Length of local W-matrix:                      1138470

 Semi-canonical OSV correlation energy:     -0.92474435
 Semi-canonical PNO correlation energies:   -0.92462166   -0.92393742

 Semi-canonical domain correction:          -0.00012269   -0.00080693

 CPU Time for PNO_generate:          0.54 sec. Elapsed time:     0.67 sec. Memory usage:     6.79 MW (max).

 Local length of PNO overlap matrix for PNO-LMP2:    6463634  Number of blocks:    1920  number of pairs   136

 GA space for pno_smat:              6.46 MW (tot),              6.46 MW (min),              6.46 MW (max), using processor specific storage

 CPU Time for READ_OSV_SBUF:         0.00 sec. Elapsed time:     0.01 sec. Memory usage:     2.89 MW (max).
 CPU Time for PNO_SMAT:              0.21 sec. Elapsed time:     0.24 sec. Memory usage:     2.89 MW (max).

 Denominator shift:          0.2000

 ITER.      SQ.NORM     CORR.ENERGY   TOTAL ENERGY   ENERGY CHANGE     VAR    DIIS
   1      0.26617751    -0.94716742  -268.87163744    -0.94716742  0.29D-02   1  1
   2      0.28460035    -0.95823847  -268.88270849    -0.01107105  0.17D-03   2  2
   3      0.29532417    -0.95882745  -268.88329746    -0.00058897  0.96D-05   3  3
   4      0.29667478    -0.95885254  -268.88332256    -0.00002509  0.83D-06   4  4
   5      0.29673785    -0.95885482  -268.88332483    -0.00000227  0.62D-07   5  5
   6      0.29670708    -0.95885497  -268.88332499    -0.00000015  0.32D-08   6  6

                                            PNO-LMP2        PNO-LMP2_CORR
  PNO-LMP2 correlation energy          -0.958854968535    -0.958977659460
 !PNO-LMP2 total energy              -268.883324985874  -268.883447676799

 CPU Time for PNO-LMP2:              0.70 sec. Elapsed time:     1.08 sec. Memory usage:     3.47 MW (max).

 Computing the F12/3*A(LOC,FIX) energy correction
 ================================================
 Options for MP2-F12: THRF12=0.0E+00  THRVAL=0.1E-03  N_RI_BATCH=0
 Geminal basis:    OPTFULL  GEM_TYPE=SLATER  BETA=1.0  NGEM=6

 Optimizing Gaussian exponents for each gem_beta

 Geminal optimization for beta= 1.0000
 Weight function:   m=0, omega= 1.4646

 Augmented Hessian optimization of geminal fit. Trust ratio= 0.40000
 Convergence reached after   2 iterations. Final gradient= 8.53D-16, Step= 4.26D-06, Delta= 1.28D-09

 Alpha:                 0.19532     0.81920     2.85917     9.50073    35.69989   197.79328
 Coeff:                 0.27070     0.30552     0.18297     0.10986     0.06810     0.04224

 Screened 136 pairs with threshold 0.0E+00, 136 pairs actually used.

  F12(PNO) correction                  -0.217948732161
  PNO-LMP2-F12(PNO) corr. energy       -1.176803700696
 !PNO-LMP2-F12(PNO) total energy     -269.101273718035

 CPU Time for F12_energy:           44.45 sec. Elapsed time:    45.99 sec. Memory usage:     9.89 MW (max).

 PNO-LMP2-F12 energy contributions
 =================================
                            OSV-LMP2(SC)     PNO-LMP2     PNO-SCS-LMP2   F12 contrib.  PNO-LMP2-F12  PNO-SCS-LMP2-F12  %(PNO/OSV)  AVDOM(PNO)
 Strong pair energy:        -0.92474435    -0.95885497    -0.94352361    -0.21794873    -1.17680370    -1.18368268       103.69       57.6
 Close pair energy:          0.00000000     0.00000000     0.00000000     0.00000000     0.00000000     0.00000000         0.00        0.0
 Weak pair energy :          0.00000000     0.00000000     0.00000000     0.00000000     0.00000000     0.00000000         0.00        0.0
 Distant pair energy:        0.00000000     0.00000000     0.00000000     0.00000000     0.00000000     0.00000000         0.00        0.0
 Total correl. energy:      -0.92474435    -0.95885497    -0.94352361    -0.21794873    -1.17680370    -1.18368268       103.69       57.6

 GA space for pno_smat:              2.54 MW (tot),              2.54 MW (min),              2.54 MW (max), using processor specific storage

 CPU Time for READ_OSV_SBUF:         0.02 sec. Elapsed time:     0.02 sec. Memory usage:     1.72 MW (max).
 CPU Time for PNO_SMAT:              0.14 sec. Elapsed time:     0.29 sec. Memory usage:     1.72 MW (max).

 Denominator shift:          0.2000

 ITER.      SQ.NORM     CORR.ENERGY   TOTAL ENERGY   ENERGY CHANGE     VAR    DIIS
   1      0.29647187    -0.95762925  -268.88209927    -0.95762925  0.85D-05   1  1
   2      0.29614891    -0.95769713  -268.88216715    -0.00006788  0.11D-06   2  2
   3      0.29598590    -0.95769765  -268.88216767    -0.00000052  0.42D-08   3  3

 LMP2 results with LCCSD domains:
 ================================
                                            PNO-LMP2        PNO-LMP2_CORR
  PNO-LMP2 correlation energy          -0.957697649433    -0.958977659460
  PNO-LMP2 total energy              -268.882167666772  -268.883447676799
  F12(PNO) correction                  -0.218984299502
  PNO-LMP2-F12 correlation energy      -1.176681948936
  PNO-LMP2-F12 total energy          -269.101151966274

  PNO-LMP2-F12 domain correction       -0.000121751760

 CPU Time for PNO-LMP2(tot):        49.68 sec. Elapsed time:    52.18 sec. Memory usage:    11.43 MW (max).

 Energy thresholds for pair classes:  THRCLOSE=1.00D-04  THRWEAK= 1.00D-05  THRDISTC=0.00D+00

 Strong and close pairs optimized in LCCSD, close pair residuals are approximated (keepcls=1).

 Number of optimized pairs:         136
 Number of strong pairs:            120
 Number of close pairs:              15
 Number of weak pairs:                1
 Total number of pairs:             136

 Length of pair-specific S-blocks:    48.61 MW,  length of unique S-blocks    12.15 MW

 CPU Time for LCC_opdom:             0.04 sec. Elapsed time:     0.05 sec. Memory usage:     0.31 MW (max).
 CPU Time for LCC_float:             0.00 sec. Elapsed time:     0.00 sec. Memory usage:     0.14 MW (max).

 CPU Time for LCC_opdom:             0.03 sec. Elapsed time:     0.03 sec. Memory usage:     0.31 MW (max).
 CPU Time for LCC_load:              0.00 sec. Elapsed time:     0.00 sec. Memory usage:     1.43 MW (max).

 Estimated GA usage of PNO-LCCSD-F12 integrals:                  0.00 MW
 Maximum GA usage after allocating GAs for CCSD integrals:       0.00 MW

 CPU Time for CCSD integrals:       87.85 sec. Elapsed time:    90.16 sec. Memory usage:     7.51 MW (max).

 GA space for pno_smat:             12.15 MW (tot),             12.15 MW (min),             12.15 MW (max), using node specific storage
 CPU Time for OSV_SMAT_LCC:          0.03 sec. Elapsed time:     0.03 sec. Memory usage:     8.47 MW (max).
 CPU Time for READ_OSV_SBUF:         0.00 sec. Elapsed time:     0.00 sec. Memory usage:     8.47 MW (max).
 CPU Time for PNO_SMAT_LCC:          0.63 sec. Elapsed time:     0.70 sec. Memory usage:     7.70 MW (max).

 Current GA usage:                   0.00 MW.  Maximum GA usage up to this point:            0.00 MW

 Solving PNO-LCCSD equations

 K-Operators in non-linear terms are projected

 Close pairs are approximated (keepcls=1, max_ijkl=0, skip_ijkl=0, maxik=0)

 Weak pairs pairs are treated by CEPA(2)

 Denominator shifts:     0.15 (singles),  0.20 (doubles)

 ITER.      SQ.NORM     CORR.ENERGY   TOTAL ENERGY   ENERGY CHANGE     VAR        VART1     DIIS     TIME
    1     0.30834735    -1.14312888  -269.06759890     0.03355307    0.42D-02    0.12D-01   1  1     6.28
    2     0.29606929    -1.17436313  -269.09883314    -0.03123425    0.11D-02    0.43D-03   2  2    12.58
    3     0.32767409    -1.17854732  -269.10301734    -0.00418420    0.15D-03    0.82D-03   3  3    19.23
    4     0.34137112    -1.18025723  -269.10472725    -0.00170991    0.47D-04    0.35D-03   4  4    25.64
    5     0.35378678    -1.18167981  -269.10614983    -0.00142258    0.30D-04    0.12D-03   5  5    31.86
    6     0.36579518    -1.18237478  -269.10684480    -0.00069496    0.80D-05    0.50D-04   6  6    38.00
    7     0.37530197    -1.18301637  -269.10748639    -0.00064159    0.23D-05    0.14D-04   7  7    44.26
    8     0.37917586    -1.18318860  -269.10765862    -0.00017223    0.11D-05    0.51D-05   8  8    50.50
    9     0.38030098    -1.18317366  -269.10764368     0.00001494    0.38D-06    0.24D-05   1  8    56.69
   10     0.38133738    -1.18316394  -269.10763396     0.00000972    0.92D-07    0.51D-06   2  8    62.89
   11     0.38175841    -1.18319807  -269.10766808    -0.00003413    0.39D-07    0.11D-06   3  8    69.10
   12     0.38166359    -1.18317379  -269.10764381     0.00002427    0.57D-08    0.28D-07   4  8    75.53
   13     0.38175808    -1.18318198  -269.10765200    -0.00000819    0.15D-08    0.55D-08   5  8    81.98
   14     0.38174079    -1.18318062  -269.10765063     0.00000136    0.51D-09    0.15D-08   6  8    88.28
   15     0.38175657    -1.18318119  -269.10765121    -0.00000057    0.15D-09    0.29D-09   7  8    94.60

 Convergence reached

  T1 diagnostic   0.03037
  D1 diagnostic   0.16202
   
  Reference energy                   -267.904375248759
  CABS singles correction              -0.020094768579
  New reference energy               -267.924470017339

  Correlation contributions without domain correction:

  PNO-LCCSD-F12 singles energy          0.001079206577
  PNO-LCCSD-F12a strong pair energy    -1.183616087538
  PNO-LCCSD-F12b strong pair energy    -1.156465924635
  PNO-LCCSD-F12 close pair energy      -0.000635839669
  PNO-CEPA(2)-F12 weak pair energy     -0.000008470028
  PNO-SCS-LMP2 distant pair energy      0.000000000000

  Results including domain correction:

  PNO-LMP2-F12 correction              -0.000121751760
  PNO-LCCSD-F12a correlation energy    -1.183302942418
  PNO-LCCSD-F12b correlation energy    -1.156152779515

 !PNO-LCCSD-F12a total energy        -269.107772959757
 !PNO-LCCSD-F12b total energy        -269.080622796854

 Maximum stack memory usage in PNO-LCCSD iterations: 8.74 MW
 Maximum GA memory usage up to this point: .00 MW
 Maximum local disk usage in MB: 825.27 (current)   825.27 (maximum)   825.27 (average)
 Maximum local disk usage per node: 825.27 MB

 CPU Time for PNO_LCCSD(it):        84.33 sec. Elapsed time:    94.61 sec. Memory usage:     7.73 MW (max).

 GA_Put processed 183.73 MW globally, average elapsed time per process: .88 sec
 GA_Get processed 18116.64 MW globally, average elapsed time per process: 15.57 sec

 REMARK: Memory usage printed may not be correct.
 CPU Time for LCCSD(tot):          172.91 sec. Elapsed time:   185.76 sec. Memory usage:    11.43 MW (max).

 Direct file usage                 196.23 MB (local),          196.23 MB (max),            196.23 MB (tot)

 Max. memory usage (overall):       11.43 MW (local),           11.43 MW (max),             11.43 MW (tot)
 Max. GA usage (overall):            0.00 MW (local),            0.00 MW (max),              0.00 MW (tot)
 Max. memory+GA usage:              11.43 MW (local),           11.43 MW (max),             11.43 MW (tot)


 **********************************************************************************************************************************
 DATASETS  * FILE   NREC   LENGTH (MB)   RECORD NAMES
              1      19       32.05       500      610      700      900      950      970     1000      129      960     1100   
                                          VAR    BASINP    GEOM    SYMINP    ZMAT    AOBASIS   BASIS     P2S    ABASIS      S 
                                         1400     1410     1200     1210     1080     1600     1650     1700      960(1)
                                           T        V       H0       H01     AOSYM     SMH    MOLCAS    OPER    ABASIS    

              2       5        4.97       700     1000      520     2100     7360   
                                         GEOM     BASIS   MCVARS     RHF    F12ABS    

 PROGRAMS   *        TOTAL LCCSD-F12     DF-HF       INT
 CPU TIMES  *       252.86    238.81     13.50      0.42
 REAL TIME  *       271.81 SEC
 DISK USED  *       604.34 MB
 **********************************************************************************************************************************

 PNO-LCCSD-F12/cc-pVDZ-F12 energy=   -269.080622796854

   PNO-LCCSD-F12           DF-HF
   -269.10777296   -267.90437525
 **********************************************************************************************************************************
 Molpro calculation terminated
