
 Primary working directories    : /var/tmp/pbs.368358.bp1/molpro.ltzprexQy5
 Secondary working directories  : /var/tmp/pbs.368358.bp1/molpro.ltzprexQy5
 Wavefunction directory         : /home/lb17101/molpro_test/inp/lowmem/
 Main file repository           : /home/lb17101/molpro_test/inp/lowmem/

 id        : uob

 Nodes                         nprocs
 bp1-13-13-01.data.bp.acrc.priv    1

 Using customized tuning parameters: mindgm=1; mindgv=20; mindgc=4; mindgr=1; noblas=0; minvec=7
 default implementation of scratch files=df  


 Variables initialized (934), CPU time= 0.00 sec
 geomtyp=xyz
 nosym
 noorient
 geometry={
  O      -0.569356242485      -1.748572643149       1.737085666936
  C       0.178818435219      -1.015762878364       0.949776982317
  C      -0.629408444014      -0.623300480967      -0.306963551361
  C      -0.408729771521       0.767747716824      -0.950699627876
  C      -0.723431928250       1.491446419359      -1.865172044092
  C       1.140146872876       0.155135093506       1.020761333596
  C       1.072635271827       1.255330257013      -0.229381330626
  H      -0.298590026327      -2.262723213259       2.719805701992
  H       1.681819710860      -1.387576444948       1.250481995273
  H      -1.395106787473      -0.818342777001       0.185899048949
  H       0.003152818919      -1.177419568376      -1.021762268618
  H      -1.675581866827       3.148248954193      -1.243005229722
  H       2.631508079484       1.482886151400      -0.883366282307
 }
 basis={
 default=vdz-f12
 set,jkfit,context=jkfit
 default,avtz
 set,mp2fit,context=mp2fit
 default,avdz
 set,ri,context=jkfit
 default,avtz
 }
 explicit,ri_basis=ri,df_basis=mp2fit,df_basis_exch=jkfit
 df-hf,basis=jkfit
 pno-lccsd-f12,cabs_singles=1,domopt=tight
 Commands  initialized (763), CPU time= 0.01 sec, 617 directives.
 Default parameters read. Elapsed time= 0.08 sec

 Checking input...
 Passed
1


                                         ***  PROGRAM SYSTEM MOLPRO  ***
                                       Copyright, TTI GmbH Stuttgart, 2015
                                    Version 2019.2 linked Oct 25 2019 22:50:27


 **********************************************************************************************************************************
 LABEL *                                                                                 
  64 bit serial version                                                                  DATE: 23-Sep-20          TIME: 02:08:49  
 **********************************************************************************************************************************

 SHA1:             8dbd9ae1082e4ce945b0f27595c9eb2d4aa09004
 **********************************************************************************************************************************
 SETTING GEOMTYP        =    XYZ

 Variable memory set to 1024000000 words,  buffer space 

 ZSYMEL=NOSYM

 SETTING BASIS          =    VDZ-F12


 Recomputing integrals since basis changed


 Using spherical harmonics

 Library entry O      S cc-pVDZ-F12          selected for orbital group  1
 Library entry O      P cc-pVDZ-F12          selected for orbital group  1
 Library entry O      D cc-pVDZ-F12          selected for orbital group  1
 Library entry C      S cc-pVDZ-F12          selected for orbital group  2
 Library entry C      P cc-pVDZ-F12          selected for orbital group  2
 Library entry C      D cc-pVDZ-F12          selected for orbital group  2
 Library entry H      S cc-pVDZ-F12          selected for orbital group  3
 Library entry H      P cc-pVDZ-F12          selected for orbital group  3


 PROGRAM * SEWARD (Integral evaluation for generally contracted gaussian basis sets)     Author: Roland Lindh, 1990

 Geometry written to block  1 of record 700


 Point group  C1  



 ATOMIC COORDINATES

 NR  ATOM    CHARGE       X              Y              Z

   1  O       8.00   -1.075927366   -3.304323404    3.282616165
   2  C       6.00    0.337917869   -1.919513648    1.794818376
   3  C       6.00   -1.189409580   -1.177867202   -0.580077042
   4  C       6.00   -0.772387327    1.450832918   -1.796561923
   5  C       6.00   -1.367088214    2.818425262   -3.524664339
   6  C       6.00    2.154565332    0.293162839    1.928959359
   7  C       6.00    2.026986895    2.372230382   -0.433467893
   8  H       1.00   -0.564253373   -4.275927169    5.139687889
   9  H       1.00    3.178178644   -2.622139458    2.363068495
  10  H       1.00   -2.636369743   -1.546443725    0.351298289
  11  H       1.00    0.005957964   -2.225000518   -1.930850852
  12  H       1.00   -3.166390828    5.949328295   -2.348939456
  13  H       1.00    4.972829565    2.802248700   -1.669320341

 Bond lengths in Bohr (Angstrom)

 1-2  2.475923802  1-8  2.157438188  2-3  2.919400081  2-6  2.866031933  3-4  2.926398357
     ( 1.310202452)     ( 1.141667123)     ( 1.544879992)     ( 1.516638785)     ( 1.548583321)

  3-10  1.759830212   3-11  2.085660958   4- 5  2.282611645   4- 7  3.247074785   6- 7  3.149581024
       ( 0.931262043)       ( 1.103684249)       ( 1.207906064)       ( 1.718277978)       ( 1.666686502)

 Bond angles

  1-2-3  109.40056831   1-2-6  139.96370606   2-1-8  129.32363958   2-3-4  119.45936295

  2- 3-10   86.92845054   2- 3-11   95.70832433   2- 6- 7  116.66965104   3- 2- 6   99.99466046

  3- 4- 5  144.66344162   3- 4- 7  101.72686895   4- 3-10  121.68869663   4- 3-11   95.74446534

  4- 7- 6   99.35105491   5- 4- 7  111.86455737  10- 3-11  135.14160936

 NUCLEAR CHARGE:                   50
 NUMBER OF PRIMITIVE AOS:         353
 NUMBER OF SYMMETRY AOS:          339
 NUMBER OF CONTRACTIONS:          264   (  264A   )
 NUMBER OF CORE ORBITALS:           7   (    7A   )
 NUMBER OF VALENCE ORBITALS:       34   (   34A   )


 NUCLEAR REPULSION ENERGY  253.28926289


 Basis set:  JKFIT                   
 Basis size:  1004
 Attributes:
 Sphericals:   T
 Basis set:  MP2FIT                  
 Basis size:   642
 Attributes:
 Sphericals:   T
 Basis set:  RI                      
 Basis size:  1004
 Attributes:
 Sphericals:   T

 **********************************************************************************************************************************


 Eigenvalues of metric

         1 0.567E-04 0.778E-04 0.134E-03 0.160E-03 0.205E-03 0.270E-03 0.345E-03 0.465E-03


 OPERATOR DM      FOR CENTER  0  COORDINATES:    0.000000    0.000000    0.000000


 **********************************************************************************************************************************
 DATASETS  * FILE   NREC   LENGTH (MB)   RECORD NAMES
              1      18       32.76       500      610      700      900      950      970     1000      129      960     1100   
                                          VAR    BASINP    GEOM    SYMINP    ZMAT    AOBASIS   BASIS     P2S    ABASIS      S 
                                         1400     1410     1200     1210     1080     1600     1650     1700   
                                           T        V       H0       H01     AOSYM     SMH    MOLCAS    OPER   

 PROGRAMS   *        TOTAL       INT
 CPU TIMES  *         0.37      0.29
 REAL TIME  *         1.20 SEC
 DISK USED  *        33.30 MB
 **********************************************************************************************************************************


 PROGRAM * RHF-SCF (CLOSED SHELL)       Authors: W. Meyer, H.-J. Werner


 NUMBER OF ELECTRONS:      25+   25-    SPACE SYMMETRY=1    SPIN SYMMETRY: Singlet 
 CONVERGENCE THRESHOLDS:    1.00E-05 (Density)    1.00E-07 (Energy)
 INTEGRAL THRESHOLDS:       1.00E-11 (Initial)    1.00E-11 (Final)
 MAX. NUMBER OF ITERATIONS:       60
 INTERPOLATION TYPE:            DIIS
 INTERPOLATION STEPS:              2 (START)      1 (STEP)
 LEVEL SHIFTS:                  0.00 (CLOSED)  0.00 (OPEN) 





 Orbital guess generated from atomic densities. Full valence occupancy:   41
 Using density fitting in orbital guess

 Coulomb and exchange fitting
 Thresholds for fitting:       THRAO_COUL= 1.0D-14    THRAO_EXCH= 1.0D-12    THRMO= 1.0D-11    THRPROD= 1.0D-11    THRASM= 1.0D-11
                               THR2HLF=    1.0D-11

 Molecular orbital dump at record        2100.2

 Initial occupancy:  25

 ITERATION   DDIFF            GRAD            ENERGY        2-EL.EN.            DIPOLE MOMENTS         DIIS   CPU(IT)  CPU(TOT)  ORB.
    1      0.000D+00      0.000D+00      -304.63212159    717.055835   -0.23112   -1.73461    1.96419    0      1.6      3.4     start
    2      0.000D+00      0.392D-02      -304.73708155    710.432931   -1.31156   -0.55648   -0.07685    1      1.6      4.9     diag
    3      0.900D-02      0.269D-02      -304.78659330    712.861080   -0.67615   -1.29447    1.02944    2      1.5      6.5     diag
    4      0.403D-02      0.763D-03      -304.79690800    712.932401   -0.80359   -1.22858    0.61392    3      1.5      8.0     diag
    5      0.182D-02      0.460D-03      -304.80057851    712.579393   -0.76704   -1.29026    0.73745    4      1.6      9.6     diag
    6      0.928D-03      0.195D-03      -304.80230610    712.572234   -0.76733   -1.34037    0.69378    5      1.6     11.1     diag
    7      0.891D-03      0.102D-03      -304.80273647    712.554544   -0.73505   -1.35405    0.71076    6      1.6     12.7     diag
    8      0.455D-03      0.561D-04      -304.80286350    712.556257   -0.73818   -1.36828    0.70027    7      1.6     14.3     diag
    9      0.242D-03      0.319D-04      -304.80291118    712.535631   -0.72611   -1.37110    0.70168    8      1.6     15.8     diag
   10      0.179D-03      0.179D-04      -304.80292962    712.551080   -0.72206   -1.37437    0.69875    9      1.6     17.4     orth
   11      0.123D-03      0.917D-05      -304.80293494    712.541078   -0.71958   -1.37616    0.69790    9      1.6     19.0     diag
   12      0.760D-04      0.488D-05      -304.80293639    712.544421   -0.71869   -1.37707    0.69659    9      1.6     20.6     diag
   13      0.397D-04      0.248D-05      -304.80293670    712.544382   -0.71822   -1.37790    0.69661    9      1.6     22.1     diag
   14      0.172D-04      0.117D-05      -304.80293675    712.543835   -0.71862   -1.37783    0.69626    9      1.6     23.7     diag
   15      0.509D-05      0.793D-06      -304.80293677    712.544139   -0.71860   -1.37785    0.69654    0      1.6     25.3     orth

 Final occupancy:  25

 !RHF STATE  1.1 Energy              -304.802936767438
 Nuclear energy                       253.28926289
 One-electron energy                 -914.36426938
 Two-electron energy                  356.27206973
 Virial quotient                       -1.00386043
 !RHF STATE  1.1 Dipole moment         -0.71860164    -1.37784940     0.69653875
 Dipole moment /Debye                  -1.82638355    -3.50191448     1.77030896

 Orbital energies:

         1.1          2.1          3.1          4.1          5.1          6.1          7.1          8.1          9.1         10.1
    -20.647259   -11.376078   -11.337185   -11.306357   -11.298154   -11.285005   -11.280998    -1.444157    -1.154789    -1.067390

        11.1         12.1         13.1         14.1         15.1         16.1         17.1         18.1         19.1         20.1
     -0.950989    -0.868755    -0.782554    -0.727498    -0.673433    -0.633027    -0.594905    -0.594156    -0.512656    -0.481864

        21.1         22.1         23.1         24.1         25.1         26.1         27.1
     -0.455517    -0.444759    -0.384834    -0.324647    -0.283100    -0.043300     0.024818


 HOMO     25.1    -0.283100 =      -7.7035eV
 LUMO     26.1    -0.043300 =      -1.1783eV
 LUMO-HOMO         0.239800 =       6.5253eV


 **********************************************************************************************************************************
 DATASETS  * FILE   NREC   LENGTH (MB)   RECORD NAMES
              1      18       32.76       500      610      700      900      950      970     1000      129      960     1100   
                                          VAR    BASINP    GEOM    SYMINP    ZMAT    AOBASIS   BASIS     P2S    ABASIS      S 
                                         1400     1410     1200     1210     1080     1600     1650     1700   
                                           T        V       H0       H01     AOSYM     SMH    MOLCAS    OPER   

              2       4        4.67       700     1000      520     2100   
                                         GEOM     BASIS   MCVARS     RHF  

 PROGRAMS   *        TOTAL     DF-HF       INT
 CPU TIMES  *        25.70     25.33      0.29
 REAL TIME  *        28.22 SEC
 DISK USED  *       129.98 MB
 **********************************************************************************************************************************

 Basis set:  JKFIT                   
 Basis size:  1004
 Attributes:
 Sphericals:   T
 Basis set:  MP2FIT                  
 Basis size:   642
 Attributes:
 Sphericals:   T
 Basis set:  RI                      
 Basis size:  1004
 Attributes:
 Sphericals:   T

 World communicator: rank 0, size 1
 Shared-memory communicator: rank 0, size 1
 Current node: rank 0, 1 node(s) in total

 Restoring occupations from record    2100.2

 Program * PNO-LCCSD-F12   Authors:   H.-J. Werner (2012), M. Schwilk, Q. Ma (2016)

 Number of core orbitals:           7
 Number of closed-shell orbitals:  18
 Number of open-shell orbitals:     0
 Number of valence orbitals:       18
 Number of external orbitals:     239


 Calculation of CABS singles correction
 ======================================


 Molecular orbitals read from record     2100.2  Type=RHF/CANONICAL (state 1.1)
 Fock matrix read from record            2100.2  Type=RHF/TOTAL (state 1.1)
 Some Fock operators are calculated for F12-singles only.

 AO(A)-basis ORBITAL           loaded. Number of functions:     264
 RI(R)-basis RI                loaded. Number of functions:    1004
 DF-basis JKFIT                loaded. Number of functions:    1004

 Screening thresholds:   THRAO=  1.00D-10  THRMO=  1.00D-09  THRPROD=  1.00D-09
                         THRSW=  1.00D-05  THROV=  1.00D-12  THRAOF12= 1.00D-08

 CPU time for Fock operators                     22.14 sec

 Construction of ABS:
 Smallest eigenvalue of S          2.11E-07  (threshold= 1.00E-08)
 Ratio eigmin/eigmax               1.48E-08  (threshold= 1.00E-09)
 Smallest eigenvalue of S kept     2.11E-07  (threshold= 2.11E-07, 0 functions deleted, 1004 kept)

 Construction of CABS:
 Smallest eigenvalue of S          1.20E-08  (threshold= 1.00E-08)
 Ratio eigmin/eigmax               1.20E-08  (threshold= 1.00E-09)
 Smallest eigenvalue of S kept     1.20E-08  (threshold= 1.20E-08, 0 functions deleted, 1004 kept)

 CPU time for CABS singles                        0.57 sec

 CABS-singles contribution of  -0.02381759 patched into reference energy.
 New reference energy        -304.82675435

 Leaving lmp2-f12 by request (CABS_SINGLES < 0) after calculation of singles.

 USING TIGHT DOMAIN OPTIONS: THRLMO=0.20  IEXT=3  THROSV=  1.0D-10
                             THRPNO_LMP2=1.0D-08  THREN_LMP2=0.997
                             THRPNO_CC=  1.0D-08  THREN_CC=  0.997
                             THRTNO_T0=  1.0D-10  THRTNO_T=1.0D-07

 iclose= 0  iweak= 0  rclose= 0.00  rweak= 0.00  thrclos= 1.0D-04  thrweak= 1.0D-05  open-shell=F

 Use_GA=T  Use_PAO=T  PAO_pairdom=F  PAO_trans=T  LOCFIT= 1  LOCRI=T  EIJDIP=2  PROJECT_K=T

 Threshold for small PAO norm:    0.00D+00
 Threshold for redundancy check:  1.00D-06

 OPTIONS FOR CCSD:   method= LCCSD     icepa= -1  icepac=-1  icepaw= 2  keepcls=1  maxcls=1  maxclt=2  maxwkt=2  do_mp2w=F
                     project_k=T    project_j=ALL    idexp4_close=0

 OPTIONS FOR SINGLES IN CCSD:   isexp4=  1  isexp5= 0  isexp6= 0  project_je=T  project_s=WEAK
                                includeGE= 1  includeKEKJ= 1  includeJEKJ= 0  includeJ= 2  undress=T  project_ke=2

 Molecular orbitals read from record     2100.2  Type=RHF/CANONICAL (state 1.1)
 Orbital energies read from record       2100.2  Type=RHF/CANONICAL (state 1.1)
 Fock matrix read from record            2100.2  Type=RHF/TOTAL (state 1.1)

  Reference energy                   -304.802936767436
  CABS singles correction              -0.023817586755
  New reference energy               -304.826754354192


 Computing intrinsic bond orbitals
 =================================

 Basis set MINAO-AUTO-PP generated.      Number of basis functions:   41 

 Polarized AO type:                A = (O Ot + (1-O)(1-Ot)) P12
 Orthogonalization method:         Symmetric (Loewdin)
 Localization functional:          L = sum[A,i] <i|n_A|i>^4 -> max

 Localization group 1:  18 orbitals, occupancy  2.000
 Iterative localization: IB/PM,   11 iter; Final gradient 0.77E-08

 Summary of localized orbital composition:   [THRPRINT= 0.020]

   ORB  GRP  ORB.ENERGY      CENTERS/CHARGES
     8   1    -1.130714      O  1   1.257   C  2   0.729
     9   1    -1.039181      C  4   1.033   C  5   0.960
    10   1    -0.927605      O  1   1.400   H  8   0.581
    11   1    -0.793435      O  1   1.960   (other: 0.040)
    12   1    -0.790170      C  4   1.074   C  3   0.874   C  5   0.021   (other: 0.031)
    13   1    -0.780273      C  3   1.219   H 10   0.761
    14   1    -0.778676      C  2   1.044   C  6   0.948
    15   1    -0.760037      C  3   1.003   C  2   0.959   (other: 0.038)
    16   1    -0.695386      C  3   1.157   H 11   0.782   C  4   0.033   (other: 0.028)
    17   1    -0.642819      C  6   0.975   C  7   0.974   C  2   0.021   (other: 0.030)
    18   1    -0.587889      O  1   1.881   C  2   0.069   C  6   0.023   H  9   0.020
    19   1    -0.565127      C  4   1.108   C  7   0.493   C  5   0.365   (other: 0.034)
    20   1    -0.535777      C  7   1.625   C  4   0.153   C  6   0.079   H 12   0.070   H 13   0.045   (other: 0.028)
    21   1    -0.530446      H  9   0.849   C  2   0.754   C  6   0.376   (other: 0.021)
    22   1    -0.494251      C  5   1.812   C  4   0.101   H 12   0.058   (other: 0.029)
    23   1    -0.445376      C  5   0.862   H 12   0.708   C  4   0.394   C  7   0.022
    24   1    -0.442225      C  7   0.968   H 13   0.854   C  4   0.088   C  6   0.049   H 12   0.031
    25   1    -0.439639      C  6   1.773   C  7   0.075   C  2   0.062   H  9   0.052   C  5   0.020

 Localizing core orbitals

 CPU Time for LMOs:                 23.22 sec. Elapsed time:    25.25 sec. Memory usage:     0.28 MW (max).
 CPU Time for PAOs:                  0.01 sec. Elapsed time:     0.01 sec. Memory usage:     0.36 MW (max).

 Distance criteria for pair classes:       RCLOSE= 0.0  RWEAK= 0.0  RDIST= 0.0  RVDIST=-1.0
 Connectivity criteria for pair classes:   ICLOSE=   0  IWEAK=   0  IDIST=   0  IVDIST=  -1

 Augmenting orbital domains by 3 shell(s) of neighboring atoms.  Minimum radius:     7.00
 Augmenting RI domains by 4 shell(s) of neighboring atoms.  Minimum radius:          9.00
 Augmenting DF domains by 3 shell(s) of neighboring atoms.  Minimum radius:          7.00

 Generating LMO domains. Method=COEFF  Threshold=1.00D-06

 Fitting truncated LMOs to exact LMOs

 Minimum LMO domain size:                255
 Maximum LMO domain size:                264
 Average LMO domain size:              263.5   (sparsity   0.19 %)

 CPU time for Fitlmo:                   0.00 sec.

 PAO orbital domain sizes:   216 (min),  264 (max),  244.3 (average)
 DF  orbital domain sizes:   524 (min),  642 (max),  592.8 (average)
 RI  orbital domain sizes:   912 (min), 1004 (max),  981.0 (average)

 CPU Time for Domains:               0.00 sec. Elapsed time:     0.00 sec. Memory usage:     0.14 MW (max).

 Number of residual matrices on current processor:       18
 Number of amplitude matrices on current processor:     171

 Fitting basis MP2FIT loaded

 Threshold for block screening:     1.00D-05
 Threshold for integral screening:  1.00D-10

 CPU time for create_blocked_AO basis:                 0.01 sec, 264 functions, 13 blocks.
 CPU time for create_blocked_DF basis:                 0.03 sec, 642 functions, 26 blocks.
 CPU time for create_blocked_RI basis:                 0.03 sec, 1004 functions, 13 blocks.

 Fitting basis center dimensions: min=   23, max=   72, average= 49.38
 Fitting basis block dimensions:  min=   1, max=  36, average= 24.69

 CPU time for project LMOs:                                    0.00 sec.
 CPU time for project PAOs:                                    0.00 sec.

 Screening PAOs with threshold      1.00D-06

 Minimum PAO vector length:              264
 Maximum PAO vector length:              264
 Average PAO vector length:            264.0  (sparsity  0.00 %)

 CPU time for cut/fit of PAO vectors:                          0.00 sec.

 CPU Time for Block_basis:           0.07 sec. Elapsed time:     0.08 sec. Memory usage:     0.19 MW (max).
 CPU Time for Orbitals(tot):        23.30 sec. Elapsed time:    25.34 sec. Memory usage:     0.19 MW (max).
 CPU Time for PAO integrals:         1.19 sec. Elapsed time:     1.21 sec. Memory usage:     2.23 MW (max).
 CPU Time for PAO integrals:         0.00 sec. Elapsed time:     0.01 sec. Memory usage:     1.27 MW (max).
 CPU Time for PAO amplitudes:        0.29 sec. Elapsed time:     0.30 sec. Memory usage:     2.49 MW (max).

 Generating OSVs using PAO(PERT) amplitudes, throsv= 1.0D-10

 Minimum OSV orbital domain size:         74
 Maximum OSV orbital domain size:        178
 Average OSV orbital domain size:      134.5

 CPU Time for OSV_generate:          0.12 sec. Elapsed time:     0.12 sec. Memory usage:     2.08 MW (max).

 Computing distant pair energies using multipole approximation up to order   3

 CPU time for computing multipole integrals (PAO/LMO):         0.19 sec
 CPU time for transforming integrals to OSV domains:           0.00 sec
 CPU time for distant pair energies:                           0.37 sec

 Distant pairs selected using the multipole order 3,  thrdist=1.0D-06  thrvdist=1.0D-07

 Semi-canonical distant pair energies, multipole-orders 1-3    0.00000000  0.00000000  0.00000000


 CPU Time for osv_mltp:              0.36 sec. Elapsed time:     0.37 sec. Memory usage:     0.79 MW (max).

 Number of strong pairs:                 171
 Number of close pairs:                    0
 Number of weak pairs:                     0
 Number of distant pairs:                  0  (treated by iterative multipole approximation, thrdist= 1.0D-06)
 Number of very distant pairs:             0  (treated by non-iterative multipole approximation, thrvdist= 1.0D-07)
 Total number of pairs in LMP2:          171

 Number of pairs per orbital (min, max, average):

 Strong pairs:              18    18    18.0
 Close pairs:                0     0     0.0
 Weak  pairs:                0     0     0.0
 Distant  pairs:             0     0     0.0
 Very distant pairs:         0     0     0.0

 CPU Time for Distribute_pairs:      0.00 sec. Elapsed time:     0.01 sec. Memory usage:     0.79 MW (max).

 Number of residual matrices on current processor:      171
 Number of amplitude matrices on current processor:     171
 F12 pair list with SKIPF=3, 171 pairs.

 Minimum OSV pair domain size:            74
 Maximum OSV pair domain size:           356
 Average OSV pair domain size:         254.8
 Total number of OSVs:                  2421
 Total number of OSV amplitudes:    11680562

 CPU Time for OSV_pairdom:           3.03 sec. Elapsed time:     3.08 sec. Memory usage:    10.73 MW (max).
 CPU Time for OSV integrals:         2.88 sec. Elapsed time:     2.98 sec. Memory usage:    20.54 MW (max).
 CPU Time for OSV_smatrix:           0.08 sec. Elapsed time:     0.09 sec. Memory usage:    19.24 MW (max).

 nosvmx= 356  nosvt= 2421  lens=         0  lenr=   8505008  lent=  11680562  leng=  11680562  lenw=   9941607  lenosv=    126736

 Generating PNOs using OSV(SC) amplitudes, THRPNO_EN=0.9970,  THRPNO_OCC=1.0D-08,  KEEP_DIAG=T  THRPNO_DIAG=0.0D+00

 Generating PNOs for LCCSD with thresholds: THREN_CC:  0.99700, THRPNO_CC:1.0D-08

                                                PNO-LMP2     PNO_LCCSD
 Minimum PNO domain size:                            46            46
 Maximum PNO domain size:                           116           116
 Average PNO domain size:                          79.7          79.7
 Total number of PNOs:                            13630         13630
 Total number of PNO amplitudes:                1124482
 Local number of PNO amplitudes:                1124482
 Length of local PNO residual:                  1124482
 Length of local W-matrix:                      3573909

 Semi-canonical OSV correlation energy:     -1.13198131
 Semi-canonical PNO correlation energies:   -1.13176891   -1.13176891

 Semi-canonical domain correction:          -0.00021240   -0.00021240

 CPU Time for PNO_generate:          1.69 sec. Elapsed time:     1.73 sec. Memory usage:    21.14 MW (max).

 Local length of PNO overlap matrix for PNO-LMP2:   17911364  Number of blocks:    2754  number of pairs   171

 GA space for pno_smat:             17.91 MW (tot),             17.91 MW (min),             17.91 MW (max), using processor specific storage

 CPU Time for READ_OSV_SBUF:         0.01 sec. Elapsed time:     0.01 sec. Memory usage:     7.09 MW (max).
 CPU Time for PNO_SMAT:              1.06 sec. Elapsed time:     1.18 sec. Memory usage:     7.06 MW (max).

 Denominator shift:          0.2000

 ITER.      SQ.NORM     CORR.ENERGY   TOTAL ENERGY   ENERGY CHANGE     VAR    DIIS
   1      0.43678744    -1.16055665  -305.98731100    -1.16055665  0.59D-02   1  1
   2      0.46965025    -1.17812358  -306.00487793    -0.01756693  0.55D-03   2  2
   3      0.49531842    -1.17960277  -306.00635712    -0.00147919  0.58D-04   3  3
   4      0.50019592    -1.17973698  -306.00649133    -0.00013421  0.70D-05   4  4
   5      0.50044145    -1.17975398  -306.00650834    -0.00001701  0.49D-06   5  5
   6      0.50042915    -1.17975525  -306.00650961    -0.00000127  0.32D-07   6  6
   7      0.50045748    -1.17975533  -306.00650969    -0.00000008  0.20D-08   7  7

                                            PNO-LMP2        PNO-LMP2_CORR
  PNO-LMP2 correlation energy          -1.179755333516    -1.179967734935
 !PNO-LMP2 total energy              -306.006509687707  -306.006722089126

 CPU Time for PNO-LMP2:              2.23 sec. Elapsed time:     2.60 sec. Memory usage:     8.53 MW (max).

 Computing the F12/3*A(LOC,FIX) energy correction
 ================================================
 Options for MP2-F12: THRF12=0.0E+00  THRVAL=0.1E-03  N_RI_BATCH=0
 Geminal basis:    OPTFULL  GEM_TYPE=SLATER  BETA=1.0  NGEM=6

 Optimizing Gaussian exponents for each gem_beta

 Geminal optimization for beta= 1.0000
 Weight function:   m=0, omega= 1.4646

 Augmented Hessian optimization of geminal fit. Trust ratio= 0.40000
 Convergence reached after   2 iterations. Final gradient= 8.53D-16, Step= 4.26D-06, Delta= 1.28D-09

 Alpha:                 0.19532     0.81920     2.85917     9.50073    35.69989   197.79328
 Coeff:                 0.27070     0.30552     0.18297     0.10986     0.06810     0.04224

 Screened 171 pairs with threshold 0.0E+00, 171 pairs actually used.

  F12(PNO) correction                  -0.229594600376
  PNO-LMP2-F12(PNO) corr. energy       -1.409349933892
 !PNO-LMP2-F12(PNO) total energy     -306.236104288083

 CPU Time for F12_energy:           71.43 sec. Elapsed time:    73.74 sec. Memory usage:    16.98 MW (max).

 PNO-LMP2-F12 energy contributions
 =================================
                            OSV-LMP2(SC)     PNO-LMP2     PNO-SCS-LMP2   F12 contrib.  PNO-LMP2-F12  PNO-SCS-LMP2-F12  %(PNO/OSV)  AVDOM(PNO)
 Strong pair energy:        -1.13198131    -1.17975533    -1.15151253    -0.22959460    -1.40934993    -1.40466690       104.22       79.7
 Close pair energy:          0.00000000     0.00000000     0.00000000     0.00000000     0.00000000     0.00000000         0.00        0.0
 Weak pair energy :          0.00000000     0.00000000     0.00000000     0.00000000     0.00000000     0.00000000         0.00        0.0
 Distant pair energy:        0.00000000     0.00000000     0.00000000     0.00000000     0.00000000     0.00000000         0.00        0.0
 Total correl. energy:      -1.13198131    -1.17975533    -1.15151253    -0.22959460    -1.40934993    -1.40466690       104.22       79.7

 GA space for pno_smat:             17.91 MW (tot),             17.91 MW (min),             17.91 MW (max), using processor specific storage

 CPU Time for READ_OSV_SBUF:         0.02 sec. Elapsed time:     0.02 sec. Memory usage:     6.62 MW (max).
 CPU Time for PNO_SMAT:              1.16 sec. Elapsed time:     1.26 sec. Memory usage:     6.59 MW (max).

 Denominator shift:          0.2000

 ITER.      SQ.NORM     CORR.ENERGY   TOTAL ENERGY   ENERGY CHANGE     VAR    DIIS
   1      0.50046057    -1.17975534  -306.00650969    -1.17975534  0.37D-09   1  1
   2      0.50046188    -1.17975534  -306.00650969    -0.00000000  0.61D-10   2  2

 LMP2 results with LCCSD domains:
 ================================
                                            PNO-LMP2        PNO-LMP2_CORR
  PNO-LMP2 correlation energy          -1.179755338923    -1.179967734935
  PNO-LMP2 total energy              -306.006509693114  -306.006722089126
  F12(PNO) correction                  -0.229594600376
  PNO-LMP2-F12 correlation energy      -1.409349939299
  PNO-LMP2-F12 total energy          -306.236104293490

  PNO-LMP2-F12 domain correction        0.000000005407

 CPU Time for PNO-LMP2(tot):        86.21 sec. Elapsed time:    89.43 sec. Memory usage:    27.17 MW (max).

 Energy thresholds for pair classes:  THRCLOSE=1.00D-04  THRWEAK= 1.00D-05  THRDISTC=0.00D+00

 Strong and close pairs optimized in LCCSD, close pair residuals are approximated (keepcls=1).

 Number of optimized pairs:         171
 Number of strong pairs:            158
 Number of close pairs:              13
 Number of weak pairs:                0
 Total number of pairs:             171

 Length of pair-specific S-blocks:   361.20 MW,  length of unique S-blocks    92.33 MW

 CPU Time for LCC_opdom:             0.06 sec. Elapsed time:     0.06 sec. Memory usage:     0.47 MW (max).
 CPU Time for LCC_float:             0.00 sec. Elapsed time:     0.01 sec. Memory usage:     0.19 MW (max).

 CPU Time for LCC_opdom:             0.05 sec. Elapsed time:     0.04 sec. Memory usage:     0.47 MW (max).
 CPU Time for LCC_load:              0.02 sec. Elapsed time:     0.02 sec. Memory usage:     5.78 MW (max).

 Estimated GA usage of PNO-LCCSD-F12 integrals:                  0.00 MW
 Maximum GA usage after allocating GAs for CCSD integrals:       0.00 MW

 CPU Time for CCSD integrals:      333.40 sec. Elapsed time:   361.82 sec. Memory usage:    45.58 MW (max).

 GA space for pno_smat:             92.33 MW (tot),             92.33 MW (min),             92.33 MW (max), using node specific storage
 CPU Time for OSV_SMAT_LCC:          0.09 sec. Elapsed time:     0.10 sec. Memory usage:    49.11 MW (max).
 CPU Time for READ_OSV_SBUF:         0.00 sec. Elapsed time:     0.00 sec. Memory usage:    49.11 MW (max).
 CPU Time for PNO_SMAT_LCC:          5.79 sec. Elapsed time:     6.45 sec. Memory usage:    46.04 MW (max).

 Current GA usage:                   0.00 MW.  Maximum GA usage up to this point:            0.00 MW

 Solving PNO-LCCSD equations

 K-Operators in non-linear terms are projected

 Close pairs are approximated (keepcls=1, max_ijkl=0, skip_ijkl=0, maxik=0)

 Weak pairs pairs are treated by CEPA(2)

 Denominator shifts:     0.15 (singles),  0.20 (doubles)

 ITER.      SQ.NORM     CORR.ENERGY   TOTAL ENERGY   ENERGY CHANGE     VAR        VART1     DIIS     TIME
    1     0.51814725    -1.34334896  -306.17010331     0.06600098    0.99D-02    0.18D-01   1  1    53.79
    2     0.49094374    -1.39611391  -306.22286827    -0.05276496    0.25D-02    0.10D-02   2  2   111.08
    3     0.56564751    -1.40596453  -306.23271889    -0.00985062    0.56D-03    0.69D-03   3  3   167.78
    4     0.60563806    -1.40900263  -306.23575699    -0.00303810    0.20D-03    0.24D-03   4  4   223.63
    5     0.63378389    -1.41054498  -306.23729934    -0.00154235    0.64D-04    0.11D-03   5  5   280.56
    6     0.65189266    -1.41126235  -306.23801670    -0.00071737    0.20D-04    0.43D-04   6  6   337.89
    7     0.66467396    -1.41178569  -306.23854005    -0.00052334    0.65D-05    0.11D-04   7  7   394.21
    8     0.67071915    -1.41198786  -306.23874221    -0.00020217    0.18D-05    0.39D-05   8  8   449.93
    9     0.67251675    -1.41208023  -306.23883459    -0.00009238    0.62D-06    0.16D-05   1  8   505.28
   10     0.67335089    -1.41210685  -306.23886120    -0.00002661    0.24D-06    0.71D-06   2  8   560.47
   11     0.67374337    -1.41213470  -306.23888905    -0.00002785    0.12D-06    0.34D-06   3  8   616.23
   12     0.67401037    -1.41213579  -306.23889014    -0.00000109    0.67D-07    0.13D-06   4  8   673.34
   13     0.67423846    -1.41214031  -306.23889467    -0.00000452    0.32D-07    0.57D-07   5  8   729.69
   14     0.67434454    -1.41213559  -306.23888995     0.00000472    0.14D-07    0.27D-07   6  8   787.43
   15     0.67442572    -1.41213550  -306.23888985     0.00000010    0.69D-08    0.15D-07   7  8   847.60

 Convergence reached

  T1 diagnostic   0.03320
  D1 diagnostic   0.13228
   
  Reference energy                   -304.802936767436
  CABS singles correction              -0.023817586755
  New reference energy               -304.826754354192

  Correlation contributions without domain correction:

  PNO-LCCSD-F12 singles energy          0.000496226870
  PNO-LCCSD-F12a strong pair energy    -1.411926104551
  PNO-LCCSD-F12b strong pair energy    -1.382261395502
  PNO-LCCSD-F12 close pair energy      -0.000705621395
  PNO-CEPA(2)-F12 weak pair energy      0.000000000000
  PNO-SCS-LMP2 distant pair energy      0.000000000000

  Results including domain correction:

  PNO-LMP2-F12 correction               0.000000005407
  PNO-LCCSD-F12a correlation energy    -1.412135493669
  PNO-LCCSD-F12b correlation energy    -1.382470784619

 !PNO-LCCSD-F12a total energy        -306.238889847860
 !PNO-LCCSD-F12b total energy        -306.209225138811

 Maximum stack memory usage in PNO-LCCSD iterations: 52.95 MW
 Maximum GA memory usage up to this point: .00 MW
 Maximum local disk usage in MB: 15235.90 (current)   15235.90 (maximum)   15235.90 (average)
 Maximum local disk usage per node: 15235.90 MB

 CPU Time for PNO_LCCSD(it):       670.31 sec. Elapsed time:   847.64 sec. Memory usage:    46.76 MW (max).

 GA_Put processed 500.73 MW globally, average elapsed time per process: 2.34 sec
 GA_Get processed 117438.35 MW globally, average elapsed time per process: 113.01 sec

 REMARK: Memory usage printed may not be correct.
 CPU Time for LCCSD(tot):         1009.72 sec. Elapsed time:  1218.37 sec. Memory usage:    49.11 MW (max).

 Direct file usage                 298.13 MB (local),          298.13 MB (max),            298.13 MB (tot)

 Max. memory usage (overall):       49.11 MW (local),           49.11 MW (max),             49.11 MW (tot)
 Max. GA usage (overall):            0.00 MW (local),            0.00 MW (max),              0.00 MW (tot)
 Max. memory+GA usage:              49.11 MW (local),           49.11 MW (max),             49.11 MW (tot)


 **********************************************************************************************************************************
 DATASETS  * FILE   NREC   LENGTH (MB)   RECORD NAMES
              1      19       32.81       500      610      700      900      950      970     1000      129      960     1100   
                                          VAR    BASINP    GEOM    SYMINP    ZMAT    AOBASIS   BASIS     P2S    ABASIS      S 
                                         1400     1410     1200     1210     1080     1600     1650     1700      960(1)
                                           T        V       H0       H01     AOSYM     SMH    MOLCAS    OPER    ABASIS    

              2       5        5.79       700     1000      520     2100     7360   
                                         GEOM     BASIS   MCVARS     RHF    F12ABS    

 PROGRAMS   *        TOTAL LCCSD-F12     DF-HF       INT
 CPU TIMES  *      1144.99   1119.28     25.33      0.29
 REAL TIME  *      1361.64 SEC
 DISK USED  *       908.87 MB
 **********************************************************************************************************************************

 PNO-LCCSD-F12/cc-pVDZ-F12 energy=   -306.209225138811

   PNO-LCCSD-F12           DF-HF
   -306.23888985   -304.80293677
 **********************************************************************************************************************************
 Molpro calculation terminated
