
 Primary working directories    : /var/tmp/pbs.368389.bp1/molpro.DlaqnlnXbV
 Secondary working directories  : /var/tmp/pbs.368389.bp1/molpro.DlaqnlnXbV
 Wavefunction directory         : /home/lb17101/molpro_test/inp/lowmem/
 Main file repository           : /home/lb17101/molpro_test/inp/lowmem/

 id        : uob

 Nodes                         nprocs
 bp1-01-09-03.data.bp.acrc.priv    1

 Using customized tuning parameters: mindgm=1; mindgv=20; mindgc=4; mindgr=1; noblas=0; minvec=7
 default implementation of scratch files=df  


 Variables initialized (934), CPU time= 0.00 sec
 geomtyp=xyz
 nosym
 noorient
 geometry={
  C      -1.823639944849       0.283336659566       0.261829355759
  C      -0.511970621848      -0.450222548386       0.075378985519
  O      -0.001208675343      -0.316432936271      -1.250809645401
  C       0.652994988676       0.336895996758       0.666892416384
  O       2.376340260045      -0.606622188589      -0.658638614409
  H      -1.725774119799       1.314519063485      -0.251472831285
  H      -2.140804862933       0.452681772603       1.313688629466
  H      -2.644717465291      -0.206782854241      -0.323318442727
  H      -0.505595249154      -1.474461792874       0.376960730184
  H       1.373489331199      -0.736997440116      -1.057055937078
  H       0.756009475318       1.387826730146       0.287614648104
  H       1.396654971538      -0.110494175162       1.326100926326
  H       2.442470167856       0.319502233246      -1.064950524831
 }
 basis=vtz-f12
 df-hf
 pno-lccsd-f12,cabs_singles=1
 Commands  initialized (763), CPU time= 0.01 sec, 617 directives.
 Default parameters read. Elapsed time= 0.06 sec

 Checking input...
 Passed
1


                                         ***  PROGRAM SYSTEM MOLPRO  ***
                                       Copyright, TTI GmbH Stuttgart, 2015
                                    Version 2019.2 linked Oct 25 2019 22:50:27


 **********************************************************************************************************************************
 LABEL *                                                                                 
  64 bit serial version                                                                  DATE: 23-Sep-20          TIME: 02:24:52  
 **********************************************************************************************************************************

 SHA1:             8dbd9ae1082e4ce945b0f27595c9eb2d4aa09004
 **********************************************************************************************************************************
 SETTING GEOMTYP        =    XYZ

 Variable memory set to 1024000000 words,  buffer space 

 ZSYMEL=NOSYM

 SETTING BASIS          =    VTZ-F12


 Recomputing integrals since basis changed


 Using spherical harmonics

 Library entry C      S cc-pVTZ-F12          selected for orbital group  1
 Library entry C      P cc-pVTZ-F12          selected for orbital group  1
 Library entry C      D cc-pVTZ-F12          selected for orbital group  1
 Library entry C      F cc-pVTZ-F12          selected for orbital group  1
 Library entry O      S cc-pVTZ-F12          selected for orbital group  2
 Library entry O      P cc-pVTZ-F12          selected for orbital group  2
 Library entry O      D cc-pVTZ-F12          selected for orbital group  2
 Library entry O      F cc-pVTZ-F12          selected for orbital group  2
 Library entry H      S cc-pVTZ-F12          selected for orbital group  5
 Library entry H      P cc-pVTZ-F12          selected for orbital group  5
 Library entry H      D cc-pVTZ-F12          selected for orbital group  5


 PROGRAM * SEWARD (Integral evaluation for generally contracted gaussian basis sets)     Author: Roland Lindh, 1990

 Geometry written to block  1 of record 700


 Point group  C1  



 ATOMIC COORDINATES

 NR  ATOM    CHARGE       X              Y              Z

   1  C       6.00   -3.446180046    0.535428688    0.494785774
   2  C       6.00   -0.967484259   -0.850797312    0.142445638
   3  O       8.00   -0.002284065   -0.597971586   -2.363687664
   4  C       6.00    1.233981689    0.636641166    1.260244022
   5  O       8.00    4.490632270   -1.146349798   -1.244646596
   6  H       1.00   -3.261240439    2.484081016   -0.475214779
   7  H       1.00   -4.045534877    0.855444572    2.482511723
   8  H       1.00   -4.997791686   -0.390762962   -0.610983308
   9  H       1.00   -0.955436551   -2.786328970    0.712352540
  10  H       1.00    2.595518671   -1.392723316   -1.997546219
  11  H       1.00    1.428650856    2.622612428    0.543512914
  12  H       1.00    2.639295387   -0.208803729    2.505967564
  13  H       1.00    4.615599685    0.603771717   -2.012464828

 Bond lengths in Bohr (Angstrom)

 1-2  2.861764996  1-6  2.184570810  1-7  2.100640576  1-8  2.118502990  2-3  2.697449979
     ( 1.514380819)     ( 1.156025088)     ( 1.111611121)     ( 1.121063503)     ( 1.427429056)

  2- 4  2.882429318   2- 9  2.017726895   4-11  2.120302200   4-12  2.059492851   5-10  2.054023687
       ( 1.525315907)       ( 1.067735091)       ( 1.122015604)       ( 1.089836683)       ( 1.086942526)

  5-13  1.915225054
       ( 1.013493452)

 Bond angles

  1-2-3  112.26611623   1-2-4  111.33425057   1-2-9  115.78906988   2-1-6  107.70347569

  2- 1- 7  115.93960065   2- 1- 8  110.99790714   2- 4-11  114.98473315   2- 4-12  122.94830653

  3-2-4   92.21445732   3-2-9  110.49895044   4-2-9  112.39075571   6-1-7  107.96405425

  6- 1- 8  102.72196539   7- 1- 8  110.58109735  10- 5-13   91.30977366  11- 4-12  121.75715431

 NUCLEAR CHARGE:                   42
 NUMBER OF PRIMITIVE AOS:         528
 NUMBER OF SYMMETRY AOS:          475
 NUMBER OF CONTRACTIONS:          409   (  409A   )
 NUMBER OF CORE ORBITALS:           5   (    5A   )
 NUMBER OF VALENCE ORBITALS:       28   (   28A   )


 NUCLEAR REPULSION ENERGY  185.62484681


 Eigenvalues of metric

         1 0.326E-04 0.504E-04 0.907E-04 0.126E-03 0.140E-03 0.150E-03 0.156E-03 0.182E-03


 OPERATOR DM      FOR CENTER  0  COORDINATES:    0.000000    0.000000    0.000000


 **********************************************************************************************************************************
 DATASETS  * FILE   NREC   LENGTH (MB)   RECORD NAMES
              1      18       36.33       500      610      700      900      950      970     1000      129      960     1100   
                                          VAR    BASINP    GEOM    SYMINP    ZMAT    AOBASIS   BASIS     P2S    ABASIS      S 
                                         1400     1410     1200     1210     1080     1600     1650     1700   
                                           T        V       H0       H01     AOSYM     SMH    MOLCAS    OPER   

 PROGRAMS   *        TOTAL       INT
 CPU TIMES  *         0.62      0.51
 REAL TIME  *         1.55 SEC
 DISK USED  *        36.92 MB
 **********************************************************************************************************************************


 PROGRAM * RHF-SCF (CLOSED SHELL)       Authors: W. Meyer, H.-J. Werner


 NUMBER OF ELECTRONS:      21+   21-    SPACE SYMMETRY=1    SPIN SYMMETRY: Singlet 
 CONVERGENCE THRESHOLDS:    1.00E-05 (Density)    1.00E-07 (Energy)
 INTEGRAL THRESHOLDS:       1.00E-11 (Initial)    1.00E-11 (Final)
 MAX. NUMBER OF ITERATIONS:       60
 INTERPOLATION TYPE:            DIIS
 INTERPOLATION STEPS:              2 (START)      1 (STEP)
 LEVEL SHIFTS:                  0.00 (CLOSED)  0.00 (OPEN) 




 Basis set AUG-CC-PVTZ/JKFIT generated.  Number of basis functions:   888 

 Orbital guess generated from atomic densities. Full valence occupancy:   33
 Using density fitting in orbital guess

 Coulomb and exchange fitting
 Thresholds for fitting:       THRAO_COUL= 1.0D-14    THRAO_EXCH= 1.0D-12    THRMO= 1.0D-11    THRPROD= 1.0D-11    THRASM= 1.0D-11
                               THR2HLF=    1.0D-11

 Molecular orbital dump at record        2100.2

 Initial occupancy:  21

 ITERATION   DDIFF            GRAD            ENERGY        2-EL.EN.            DIPOLE MOMENTS         DIIS   CPU(IT)  CPU(TOT)  ORB.
    1      0.000D+00      0.000D+00      -267.78342236    565.006892   -0.56554    1.64267    2.41842    0      3.0      6.3     start
    2      0.000D+00      0.417D-02      -267.85369792    558.559945   -0.56319    0.62464    0.76945    1      2.9      9.3     diag
    3      0.449D-02      0.331D-02      -267.92237907    562.014501   -0.49140    1.02958    1.77553    2      2.9     12.2     diag
    4      0.204D-02      0.583D-03      -267.92565855    561.774212   -0.53207    1.03233    1.66956    3      2.9     15.1     diag
    5      0.499D-03      0.270D-03      -267.92639300    561.744136   -0.51975    1.02053    1.71979    4      2.9     18.0     diag
    6      0.226D-03      0.883D-04      -267.92653990    561.749668   -0.52950    1.02576    1.72134    5      2.9     20.9     diag
    7      0.965D-04      0.334D-04      -267.92657544    561.739299   -0.52932    1.02730    1.72546    6      2.9     23.8     diag
    8      0.550D-04      0.129D-04      -267.92658092    561.742673   -0.53030    1.02848    1.72658    7      2.9     26.7     diag
    9      0.219D-04      0.488D-05      -267.92658186    561.743937   -0.52951    1.02894    1.72739    8      2.9     29.6     diag
   10      0.929D-05      0.199D-05      -267.92658202    561.743692   -0.52912    1.02905    1.72745    9      2.9     32.6     orth
   11      0.390D-05      0.863D-06      -267.92658206    561.744106   -0.52888    1.02920    1.72761    9      2.9     35.5     diag
   12      0.183D-05      0.472D-06      -267.92658206    561.743764   -0.52887    1.02919    1.72758    0      2.9     38.4     orth

 Final occupancy:  21

 !RHF STATE  1.1 Energy              -267.926582064073
 Nuclear energy                       185.62484681
 One-electron energy                 -734.42331088
 Two-electron energy                  280.87188201
 Virial quotient                       -1.00246369
 !RHF STATE  1.1 Dipole moment         -0.52887474     1.02919085     1.72758391
 Dipole moment /Debye                  -1.34417745     2.61577088     4.39079272

 Orbital energies:

         1.1          2.1          3.1          4.1          5.1          6.1          7.1          8.1          9.1         10.1
    -20.530571   -20.496677   -11.385711   -11.302490   -11.243250    -1.311283    -1.265481    -1.038651    -0.958568    -0.814455

        11.1         12.1         13.1         14.1         15.1         16.1         17.1         18.1         19.1         20.1
     -0.708373    -0.655608    -0.619233    -0.599481    -0.571552    -0.560134    -0.518861    -0.500567    -0.470059    -0.406823

        21.1         22.1         23.1
     -0.381947     0.009934     0.041570


 HOMO     21.1    -0.381947 =     -10.3933eV
 LUMO     22.1     0.009934 =       0.2703eV
 LUMO-HOMO         0.391881 =      10.6636eV


 **********************************************************************************************************************************
 DATASETS  * FILE   NREC   LENGTH (MB)   RECORD NAMES
              1      18       36.33       500      610      700      900      950      970     1000      129      960     1100   
                                          VAR    BASINP    GEOM    SYMINP    ZMAT    AOBASIS   BASIS     P2S    ABASIS      S 
                                         1400     1410     1200     1210     1080     1600     1650     1700   
                                           T        V       H0       H01     AOSYM     SMH    MOLCAS    OPER   

              2       4        7.04       700     1000      520     2100   
                                         GEOM     BASIS   MCVARS     RHF  

 PROGRAMS   *        TOTAL     DF-HF       INT
 CPU TIMES  *        39.03     38.41      0.51
 REAL TIME  *        42.22 SEC
 DISK USED  *       140.31 MB
 **********************************************************************************************************************************


 World communicator: rank 0, size 1
 Shared-memory communicator: rank 0, size 1
 Current node: rank 0, 1 node(s) in total

 Restoring occupations from record    2100.2

 Program * PNO-LCCSD-F12   Authors:   H.-J. Werner (2012), M. Schwilk, Q. Ma (2016)

 Number of core orbitals:           5
 Number of closed-shell orbitals:  16
 Number of open-shell orbitals:     0
 Number of valence orbitals:       16
 Number of external orbitals:     388

 Basis set CC-PVTZ-F12/OPTRI generated.  Number of basis functions:   703 

 Generating union of orbital basis set VTZ-F12 and corresponding OPTRI basis

 Basis set CC-PVTZ-F12_CABS generated.   Number of basis functions:   1112 
 Basis set AUG-CC-PVTZ/MP2FIT generated. Number of basis functions:   898 

 Calculation of CABS singles correction
 ======================================


 Molecular orbitals read from record     2100.2  Type=RHF/CANONICAL (state 1.1)
 Fock matrix read from record            2100.2  Type=RHF/TOTAL (state 1.1)
 Some Fock operators are calculated for F12-singles only.

 AO(A)-basis ORBITAL           loaded. Number of functions:     409
 RI(R)-basis CC-PVTZ-F12/OPTRI loaded. Number of functions:     703
 DF-basis AUG-CC-PVTZ/JKFIT    loaded. Number of functions:     888

 Screening thresholds:   THRAO=  1.00D-10  THRMO=  1.00D-09  THRPROD=  1.00D-09
                         THRSW=  1.00D-05  THROV=  1.00D-12  THRAOF12= 1.00D-08

 CPU time for Fock operators                     16.70 sec

 Construction of ABS:
 Smallest eigenvalue of S          6.59E-05  (threshold= 1.00E-08)
 Ratio eigmin/eigmax               6.88E-06  (threshold= 1.00E-09)
 Smallest eigenvalue of S kept     6.59E-05  (threshold= 6.59E-05, 0 functions deleted, 703 kept)

 Construction of CABS:
 Smallest eigenvalue of S          4.10E-07  (threshold= 1.00E-08)
 Ratio eigmin/eigmax               4.10E-07  (threshold= 1.00E-09)
 Smallest eigenvalue of S kept     4.10E-07  (threshold= 4.10E-07, 0 functions deleted, 703 kept)

 CPU time for CABS singles                        0.48 sec

 CABS-singles contribution of  -0.00250825 patched into reference energy.
 New reference energy        -267.92909032

 Leaving lmp2-f12 by request (CABS_SINGLES < 0) after calculation of singles.

 iclose= 0  iweak= 0  rclose= 0.00  rweak= 0.00  thrclos= 1.0D-04  thrweak= 1.0D-05  open-shell=F

 Use_GA=T  Use_PAO=T  PAO_pairdom=F  PAO_trans=T  LOCFIT= 1  LOCRI=T  EIJDIP=2  PROJECT_K=T

 Threshold for small PAO norm:    0.00D+00
 Threshold for redundancy check:  1.00D-06

 OPTIONS FOR CCSD:   method= LCCSD     icepa= -1  icepac=-1  icepaw= 2  keepcls=1  maxcls=1  maxclt=2  maxwkt=2  do_mp2w=F
                     project_k=T    project_j=ALL    idexp4_close=0

 OPTIONS FOR SINGLES IN CCSD:   isexp4=  1  isexp5= 0  isexp6= 0  project_je=T  project_s=WEAK
                                includeGE= 1  includeKEKJ= 1  includeJEKJ= 0  includeJ= 2  undress=T  project_ke=2

 Molecular orbitals read from record     2100.2  Type=RHF/CANONICAL (state 1.1)
 Orbital energies read from record       2100.2  Type=RHF/CANONICAL (state 1.1)
 Fock matrix read from record            2100.2  Type=RHF/TOTAL (state 1.1)

  Reference energy                   -267.926582064073
  CABS singles correction              -0.002508254923
  New reference energy               -267.929090318996


 Computing intrinsic bond orbitals
 =================================

 Basis set MINAO-AUTO-PP generated.      Number of basis functions:   33 

 Polarized AO type:                A = (O Ot + (1-O)(1-Ot)) P12
 Orthogonalization method:         Symmetric (Loewdin)
 Localization functional:          L = sum[A,i] <i|n_A|i>^4 -> max

 Localization group 1:  16 orbitals, occupancy  2.000
 Iterative localization: IB/PM,    7 iter; Final gradient 0.22E-08

 Summary of localized orbital composition:   [THRPRINT= 0.020]

   ORB  GRP  ORB.ENERGY      CENTERS/CHARGES
     6   1    -0.886041      O  5   1.330   H 13   0.665
     7   1    -0.865033      O  3   1.140   C  2   0.798   C  4   0.055
     8   1    -0.799658      O  5   1.527   H 10   0.461
     9   1    -0.785563      C  4   1.152   C  2   0.841
    10   1    -0.783927      C  4   1.224   H 12   0.774
    11   1    -0.768334      C  4   1.200   H 11   0.795
    12   1    -0.761685      O  5   1.998
    13   1    -0.755741      O  3   1.979   (other: 0.021)
    14   1    -0.749808      C  2   1.005   C  1   0.981
    15   1    -0.713611      C  2   1.139   H  9   0.844
    16   1    -0.670035      C  1   1.113   H  7   0.878
    17   1    -0.649456      C  1   1.136   H  8   0.851
    18   1    -0.630868      C  1   1.110   H  6   0.879
    19   1    -0.573970      O  3   1.869   C  4   0.057   H 10   0.042   (other: 0.032)
    20   1    -0.510982      O  3   1.743   H 10   0.115   C  4   0.089   C  2   0.023   (other: 0.031)
    21   1    -0.476361      O  5   1.915   C  4   0.079

 Localizing core orbitals

 CPU Time for LMOs:                 17.58 sec. Elapsed time:    18.42 sec. Memory usage:     0.67 MW (max).
 CPU Time for PAOs:                  0.01 sec. Elapsed time:     0.02 sec. Memory usage:     0.85 MW (max).

 Distance criteria for pair classes:       RCLOSE= 0.0  RWEAK= 0.0  RDIST= 0.0  RVDIST=-1.0
 Connectivity criteria for pair classes:   ICLOSE=   0  IWEAK=   0  IDIST=   0  IVDIST=  -1

 Augmenting orbital domains by 2 shell(s) of neighboring atoms.  Minimum radius:     5.00
 Augmenting RI domains by 3 shell(s) of neighboring atoms.  Minimum radius:          7.00
 Augmenting DF domains by 2 shell(s) of neighboring atoms.  Minimum radius:          5.00

 Generating LMO domains. Method=COEFF  Threshold=1.00D-06

 Fitting truncated LMOs to exact LMOs

 Minimum LMO domain size:                409
 Maximum LMO domain size:                409
 Average LMO domain size:              409.0   (sparsity   0.00 %)

 CPU time for Fitlmo:                   0.00 sec.

 PAO orbital domain sizes:   213 (min),  409 (max),  319.8 (average)
 DF  orbital domain sizes:   456 (min),  898 (max),  692.0 (average)
 RI  orbital domain sizes:   807 (min), 1112 (max), 1008.7 (average)

 CPU Time for Domains:               0.00 sec. Elapsed time:     0.01 sec. Memory usage:     0.34 MW (max).

 Number of residual matrices on current processor:       16
 Number of amplitude matrices on current processor:     136

 Fitting basis AUG-CC-PVTZ-MP2F loaded

 Threshold for block screening:     1.00D-05
 Threshold for integral screening:  1.00D-10

 CPU time for create_blocked_AO basis:                 0.01 sec, 409 functions, 18 blocks.
 CPU time for create_blocked_DF basis:                 0.03 sec, 898 functions, 33 blocks.
 CPU time for create_blocked_RI basis:                 0.04 sec, 1112 functions, 13 blocks.

 Fitting basis center dimensions: min=   46, max=  106, average= 69.08
 Fitting basis block dimensions:  min=   1, max=  36, average= 27.21

 CPU time for project LMOs:                                    0.00 sec.
 CPU time for project PAOs:                                    0.00 sec.

 Screening PAOs with threshold      1.00D-06

 Minimum PAO vector length:              409
 Maximum PAO vector length:              409
 Average PAO vector length:            409.0  (sparsity  0.00 %)

 CPU time for cut/fit of PAO vectors:                          0.00 sec.

 CPU Time for Block_basis:           0.09 sec. Elapsed time:     0.10 sec. Memory usage:     0.39 MW (max).
 CPU Time for Orbitals(tot):        17.68 sec. Elapsed time:    18.55 sec. Memory usage:     0.39 MW (max).
 CPU Time for PAO integrals:         3.39 sec. Elapsed time:     3.43 sec. Memory usage:     4.03 MW (max).
 CPU Time for PAO integrals:         0.00 sec. Elapsed time:     0.02 sec. Memory usage:     2.09 MW (max).
 CPU Time for PAO amplitudes:        0.63 sec. Elapsed time:     0.63 sec. Memory usage:     4.23 MW (max).

 Generating OSVs using PAO(PERT) amplitudes, throsv= 1.0D-09

 Minimum OSV orbital domain size:         84
 Maximum OSV orbital domain size:        165
 Average OSV orbital domain size:      119.9

 CPU Time for OSV_generate:          0.21 sec. Elapsed time:     0.33 sec. Memory usage:     3.22 MW (max).

 Computing distant pair energies using multipole approximation up to order   3

 CPU time for computing multipole integrals (PAO/LMO):         0.54 sec
 CPU time for transforming integrals to OSV domains:           0.00 sec
 CPU time for distant pair energies:                           0.68 sec

 Distant pairs selected using the multipole order 3,  thrdist=1.0D-06  thrvdist=1.0D-07

 Semi-canonical distant pair energies, multipole-orders 1-3    0.00000000  0.00000000  0.00000000


 CPU Time for osv_mltp:              0.57 sec. Elapsed time:     0.70 sec. Memory usage:     1.02 MW (max).

 Number of strong pairs:                 136
 Number of close pairs:                    0
 Number of weak pairs:                     0
 Number of distant pairs:                  0  (treated by iterative multipole approximation, thrdist= 1.0D-06)
 Number of very distant pairs:             0  (treated by non-iterative multipole approximation, thrvdist= 1.0D-07)
 Total number of pairs in LMP2:          136

 Number of pairs per orbital (min, max, average):

 Strong pairs:              16    16    16.0
 Close pairs:                0     0     0.0
 Weak  pairs:                0     0     0.0
 Distant  pairs:             0     0     0.0
 Very distant pairs:         0     0     0.0

 CPU Time for Distribute_pairs:      0.00 sec. Elapsed time:     0.00 sec. Memory usage:     1.02 MW (max).

 Number of residual matrices on current processor:      136
 Number of amplitude matrices on current processor:     136
 F12 pair list with SKIPF=3, 136 pairs.

 Minimum OSV pair domain size:            84
 Maximum OSV pair domain size:           317
 Average OSV pair domain size:         225.6
 Total number of OSVs:                  1918
 Total number of OSV amplitudes:     7264054

 CPU Time for OSV_pairdom:           2.55 sec. Elapsed time:     2.81 sec. Memory usage:     8.29 MW (max).
 CPU Time for OSV integrals:         7.07 sec. Elapsed time:     7.30 sec. Memory usage:    18.06 MW (max).
 CPU Time for OSV_smatrix:           0.11 sec. Elapsed time:     0.12 sec. Memory usage:    15.50 MW (max).

 nosvmx= 317  nosvt= 1918  lens=         0  lenr=   7212559  lent=   7264054  leng=   7264054  lenw=   7268327  lenosv=    100489

 Generating PNOs using OSV(SC) amplitudes, THRPNO_EN=0.9970,  THRPNO_OCC=1.0D-08,  KEEP_DIAG=T  THRPNO_DIAG=0.0D+00

 Generating PNOs for LCCSD with thresholds: THREN_CC:  0.99000, THRPNO_CC:1.0D-07

                                                PNO-LMP2     PNO_LCCSD
 Minimum PNO domain size:                            54            29
 Maximum PNO domain size:                           123            77
 Average PNO domain size:                          87.0          53.5
 Total number of PNOs:                            11832          7282
 Total number of PNO amplitudes:                1061962
 Local number of PNO amplitudes:                1061962
 Length of local PNO residual:                  1061962
 Length of local W-matrix:                      2722506

 Semi-canonical OSV correlation energy:     -1.04017338
 Semi-canonical PNO correlation energies:   -1.03991958   -1.03861491

 Semi-canonical domain correction:          -0.00025380   -0.00155847

 CPU Time for PNO_generate:          1.78 sec. Elapsed time:     1.82 sec. Memory usage:    17.18 MW (max).

 Local length of PNO overlap matrix for PNO-LMP2:   14673191  Number of blocks:    1920  number of pairs   136

 GA space for pno_smat:             14.67 MW (tot),             14.67 MW (min),             14.67 MW (max), using processor specific storage

 CPU Time for READ_OSV_SBUF:         0.00 sec. Elapsed time:     0.01 sec. Memory usage:     6.90 MW (max).
 CPU Time for PNO_SMAT:              0.78 sec. Elapsed time:     0.83 sec. Memory usage:     6.89 MW (max).

 Denominator shift:          0.2000

 ITER.      SQ.NORM     CORR.ENERGY   TOTAL ENERGY   ENERGY CHANGE     VAR    DIIS
   1      0.28123175    -1.06249242  -268.99158273    -1.06249242  0.30D-02   1  1
   2      0.29977683    -1.07379007  -269.00288039    -0.01129765  0.17D-03   2  2
   3      0.31049238    -1.07437187  -269.00346219    -0.00058180  0.94D-05   3  3
   4      0.31188316    -1.07439682  -269.00348714    -0.00002495  0.79D-06   4  4
   5      0.31194181    -1.07439896  -269.00348928    -0.00000214  0.60D-07   5  5
   6      0.31191107    -1.07439911  -269.00348943    -0.00000015  0.30D-08   6  6

                                            PNO-LMP2        PNO-LMP2_CORR
  PNO-LMP2 correlation energy          -1.074399109377    -1.074652906663
 !PNO-LMP2 total energy              -269.003489428373  -269.003743225659

 CPU Time for PNO-LMP2:              1.99 sec. Elapsed time:     2.36 sec. Memory usage:     8.22 MW (max).

 Computing the F12/3*A(LOC,FIX) energy correction
 ================================================
 Options for MP2-F12: THRF12=0.0E+00  THRVAL=0.1E-03  N_RI_BATCH=0
 Geminal basis:    OPTFULL  GEM_TYPE=SLATER  BETA=1.0  NGEM=6

 Optimizing Gaussian exponents for each gem_beta

 Geminal optimization for beta= 1.0000
 Weight function:   m=0, omega= 1.4646

 Augmented Hessian optimization of geminal fit. Trust ratio= 0.40000
 Convergence reached after   2 iterations. Final gradient= 8.53D-16, Step= 4.26D-06, Delta= 1.28D-09

 Alpha:                 0.19532     0.81920     2.85917     9.50073    35.69989   197.79328
 Coeff:                 0.27070     0.30552     0.18297     0.10986     0.06810     0.04224

 Screened 136 pairs with threshold 0.0E+00, 136 pairs actually used.

  F12(PNO) correction                  -0.098500845625
  PNO-LMP2-F12(PNO) corr. energy       -1.172899955002
 !PNO-LMP2-F12(PNO) total energy     -269.101990273998

 CPU Time for F12_energy:          162.79 sec. Elapsed time:   165.33 sec. Memory usage:    21.77 MW (max).

 PNO-LMP2-F12 energy contributions
 =================================
                            OSV-LMP2(SC)     PNO-LMP2     PNO-SCS-LMP2   F12 contrib.  PNO-LMP2-F12  PNO-SCS-LMP2-F12  %(PNO/OSV)  AVDOM(PNO)
 Strong pair energy:        -1.04017338    -1.07439911    -1.06591680    -0.09850085    -1.17289996    -1.17840027       103.29       87.0
 Close pair energy:          0.00000000     0.00000000     0.00000000     0.00000000     0.00000000     0.00000000         0.00        0.0
 Weak pair energy :          0.00000000     0.00000000     0.00000000     0.00000000     0.00000000     0.00000000         0.00        0.0
 Distant pair energy:        0.00000000     0.00000000     0.00000000     0.00000000     0.00000000     0.00000000         0.00        0.0
 Total correl. energy:      -1.04017338    -1.07439911    -1.06591680    -0.09850085    -1.17289996    -1.17840027       103.29       87.0

 GA space for pno_smat:              5.49 MW (tot),              5.49 MW (min),              5.49 MW (max), using processor specific storage

 CPU Time for READ_OSV_SBUF:         0.04 sec. Elapsed time:     0.05 sec. Memory usage:     3.99 MW (max).
 CPU Time for PNO_SMAT:              0.53 sec. Elapsed time:     0.56 sec. Memory usage:     3.97 MW (max).

 Denominator shift:          0.2000

 ITER.      SQ.NORM     CORR.ENERGY   TOTAL ENERGY   ENERGY CHANGE     VAR    DIIS
   1      0.31166935    -1.07250914  -269.00159946    -1.07250914  0.11D-04   1  1
   2      0.31135251    -1.07264573  -269.00173605    -0.00013659  0.12D-06   2  2
   3      0.31117291    -1.07264635  -269.00173667    -0.00000062  0.48D-08   3  3

 LMP2 results with LCCSD domains:
 ================================
                                            PNO-LMP2        PNO-LMP2_CORR
  PNO-LMP2 correlation energy          -1.072646352385    -1.074652906663
  PNO-LMP2 total energy              -269.001736671381  -269.003743225659
  F12(PNO) correction                  -0.099500713836
  PNO-LMP2-F12 correlation energy      -1.172147066221
  PNO-LMP2-F12 total energy          -269.101237385217

  PNO-LMP2-F12 domain correction       -0.000752888782

 CPU Time for PNO-LMP2(tot):       182.75 sec. Elapsed time:   186.67 sec. Memory usage:    25.30 MW (max).

 Energy thresholds for pair classes:  THRCLOSE=1.00D-04  THRWEAK= 1.00D-05  THRDISTC=0.00D+00

 Strong and close pairs optimized in LCCSD, close pair residuals are approximated (keepcls=1).

 Number of optimized pairs:         136
 Number of strong pairs:            120
 Number of close pairs:              15
 Number of weak pairs:                1
 Total number of pairs:             136

 Length of pair-specific S-blocks:   105.44 MW,  length of unique S-blocks    26.28 MW

 CPU Time for LCC_opdom:             0.03 sec. Elapsed time:     0.04 sec. Memory usage:     0.56 MW (max).
 CPU Time for LCC_float:             0.00 sec. Elapsed time:     0.00 sec. Memory usage:     0.39 MW (max).

 CPU Time for LCC_opdom:             0.03 sec. Elapsed time:     0.03 sec. Memory usage:     0.56 MW (max).
 CPU Time for LCC_load:              0.01 sec. Elapsed time:     0.01 sec. Memory usage:     3.26 MW (max).

 Estimated GA usage of PNO-LCCSD-F12 integrals:                  0.00 MW
 Maximum GA usage after allocating GAs for CCSD integrals:       0.00 MW

 CPU Time for CCSD integrals:      440.58 sec. Elapsed time:   464.09 sec. Memory usage:    16.33 MW (max).

 GA space for pno_smat:             26.28 MW (tot),             26.28 MW (min),             26.28 MW (max), using node specific storage
 CPU Time for OSV_SMAT_LCC:          0.12 sec. Elapsed time:     0.13 sec. Memory usage:    18.83 MW (max).
 CPU Time for READ_OSV_SBUF:         0.00 sec. Elapsed time:     0.00 sec. Memory usage:    18.83 MW (max).
 CPU Time for PNO_SMAT_LCC:          2.54 sec. Elapsed time:     2.72 sec. Memory usage:    16.89 MW (max).

 Current GA usage:                   0.00 MW.  Maximum GA usage up to this point:            0.00 MW

 Solving PNO-LCCSD equations

 K-Operators in non-linear terms are projected

 Close pairs are approximated (keepcls=1, max_ijkl=0, skip_ijkl=0, maxik=0)

 Weak pairs pairs are treated by CEPA(2)

 Denominator shifts:     0.15 (singles),  0.20 (doubles)

 ITER.      SQ.NORM     CORR.ENERGY   TOTAL ENERGY   ENERGY CHANGE     VAR        VART1     DIIS     TIME
    1     0.32400262    -1.14006953  -269.06915984     0.03207754    0.45D-02    0.13D-01   1  1    19.00
    2     0.31229052    -1.17395487  -269.10304519    -0.03388535    0.11D-02    0.35D-03   2  2    37.73
    3     0.34520631    -1.17739402  -269.10648434    -0.00343914    0.14D-03    0.86D-03   3  3    56.47
    4     0.35874432    -1.17903497  -269.10812529    -0.00164095    0.45D-04    0.34D-03   4  4    75.37
    5     0.37118470    -1.18042544  -269.10951576    -0.00139047    0.28D-04    0.11D-03   5  5    93.86
    6     0.38175703    -1.18100139  -269.11009171    -0.00057595    0.71D-05    0.48D-04   6  6   112.35
    7     0.39053418    -1.18158431  -269.11067463    -0.00058291    0.19D-05    0.11D-04   7  7   130.79
    8     0.39374314    -1.18172160  -269.11081192    -0.00013730    0.94D-06    0.41D-05   8  8   149.71
    9     0.39461503    -1.18170861  -269.11079893     0.00001299    0.29D-06    0.19D-05   1  8   168.70
   10     0.39540095    -1.18169917  -269.11078949     0.00000945    0.72D-07    0.40D-06   2  8   187.51
   11     0.39569809    -1.18172548  -269.11081580    -0.00002631    0.29D-07    0.79D-07   3  8   206.04
   12     0.39561290    -1.18170434  -269.11079466     0.00002114    0.42D-08    0.22D-07   4  8   224.49
   13     0.39569663    -1.18171127  -269.11080159    -0.00000693    0.10D-08    0.41D-08   5  8   242.89
   14     0.39567779    -1.18170992  -269.11080024     0.00000136    0.37D-09    0.99D-09   6  8   262.44
   15     0.39569115    -1.18171032  -269.11080064    -0.00000040    0.11D-09    0.18D-09   7  8   280.85

 Convergence reached

  T1 diagnostic   0.02967
  D1 diagnostic   0.15791
   
  Reference energy                   -267.926582064073
  CABS singles correction              -0.002508254923
  New reference energy               -267.929090318996

  Correlation contributions without domain correction:

  PNO-LCCSD-F12 singles energy          0.001085092190
  PNO-LCCSD-F12a strong pair energy    -1.182144167349
  PNO-LCCSD-F12b strong pair energy    -1.163307570992
  PNO-LCCSD-F12 close pair energy      -0.000642503875
  PNO-CEPA(2)-F12 weak pair energy     -0.000008743299
  PNO-SCS-LMP2 distant pair energy      0.000000000000

  Results including domain correction:

  PNO-LMP2-F12 correction              -0.000752888782
  PNO-LCCSD-F12a correlation energy    -1.182463211114
  PNO-LCCSD-F12b correlation energy    -1.163626614757

 !PNO-LCCSD-F12a total energy        -269.111553530110
 !PNO-LCCSD-F12b total energy        -269.092716933753

 Maximum stack memory usage in PNO-LCCSD iterations: 19.39 MW
 Maximum GA memory usage up to this point: .00 MW
 Maximum local disk usage in MB: 3060.84 (current)   3060.84 (maximum)   3060.84 (average)
 Maximum local disk usage per node: 3060.84 MB

 CPU Time for PNO_LCCSD(it):       245.97 sec. Elapsed time:   280.87 sec. Memory usage:    16.77 MW (max).

 GA_Put processed 506.99 MW globally, average elapsed time per process: 3.25 sec
 GA_Get processed 45593.97 MW globally, average elapsed time per process: 51.39 sec

 REMARK: Memory usage printed may not be correct.
 CPU Time for LCCSD(tot):          689.28 sec. Elapsed time:   748.40 sec. Memory usage:    25.30 MW (max).

 Direct file usage                 192.92 MB (local),          192.92 MB (max),            192.92 MB (tot)

 Max. memory usage (overall):       25.30 MW (local),           25.30 MW (max),             25.30 MW (tot)
 Max. GA usage (overall):            0.00 MW (local),            0.00 MW (max),              0.00 MW (tot)
 Max. memory+GA usage:              25.30 MW (local),           25.30 MW (max),             25.30 MW (tot)


 **********************************************************************************************************************************
 DATASETS  * FILE   NREC   LENGTH (MB)   RECORD NAMES
              1      19       36.42       500      610      700      900      950      970     1000      129      960     1100   
                                          VAR    BASINP    GEOM    SYMINP    ZMAT    AOBASIS   BASIS     P2S    ABASIS      S 
                                         1400     1410     1200     1210     1080     1600     1650     1700      960(1)
                                           T        V       H0       H01     AOSYM     SMH    MOLCAS    OPER    ABASIS    

              2       5        9.73       700     1000      520     2100     7360   
                                         GEOM     BASIS   MCVARS     RHF    F12ABS    

 PROGRAMS   *        TOTAL LCCSD-F12     DF-HF       INT
 CPU TIMES  *       928.77    889.72     38.41      0.51
 REAL TIME  *       995.90 SEC
 DISK USED  *       647.28 MB
 **********************************************************************************************************************************

 PNO-LCCSD-F12/cc-pVTZ-F12 energy=   -269.092716933753

   PNO-LCCSD-F12           DF-HF
   -269.11155353   -267.92658206
 **********************************************************************************************************************************
 Molpro calculation terminated
