
 Primary working directories    : /var/tmp/pbs.368393.bp1/molpro.8pXDlac9la
 Secondary working directories  : /var/tmp/pbs.368393.bp1/molpro.8pXDlac9la
 Wavefunction directory         : /home/lb17101/molpro_test/inp/lowmem/
 Main file repository           : /home/lb17101/molpro_test/inp/lowmem/

 id        : uob

 Nodes                         nprocs
 bp1-01-03-02.data.bp.acrc.priv    1

 Using customized tuning parameters: mindgm=1; mindgv=20; mindgc=4; mindgr=1; noblas=0; minvec=7
 default implementation of scratch files=df  


 Variables initialized (934), CPU time= 0.01 sec
 geomtyp=xyz
 nosym
 noorient
 geometry={
  C      -2.105596204421       0.535677663481      -0.151794926130
  C      -1.376999116240      -0.516108772044       0.058173674195
  C      -0.210397482178      -1.309131542876      -0.411992436819
  N       1.176676410634      -1.051399948153      -0.508377644586
  C       1.247002405252       0.256052756653      -0.048054089579
  N       2.473764445406       0.856828547356      -0.601040986858
  O       0.314842796730       0.555613334498       0.765766571628
  H      -1.041156553642       1.206958278275      -0.803760714685
  H      -2.870000252621       0.341161949986      -1.137985690052
  H      -2.444357935433       0.783067242155       0.942243419155
  H      -0.961480037088      -2.351333975222      -1.204224241063
  H       3.002837802981       0.819621410290       0.375297271505
  H       2.914691335518      -0.275970397062      -0.672638512232
 }
 basis=vtz-f12
 df-hf
 pno-lccsd-f12,cabs_singles=1,domopt=tight
 Commands  initialized (763), CPU time= 0.01 sec, 617 directives.
 Default parameters read. Elapsed time= 0.07 sec

 Checking input...
 Passed
1


                                         ***  PROGRAM SYSTEM MOLPRO  ***
                                       Copyright, TTI GmbH Stuttgart, 2015
                                    Version 2019.2 linked Oct 25 2019 22:50:27


 **********************************************************************************************************************************
 LABEL *                                                                                 
  64 bit serial version                                                                  DATE: 23-Sep-20          TIME: 02:27:44  
 **********************************************************************************************************************************

 SHA1:             8dbd9ae1082e4ce945b0f27595c9eb2d4aa09004
 **********************************************************************************************************************************
 SETTING GEOMTYP        =    XYZ

 Variable memory set to 1024000000 words,  buffer space 

 ZSYMEL=NOSYM

 SETTING BASIS          =    VTZ-F12


 Recomputing integrals since basis changed


 Using spherical harmonics

 Library entry C      S cc-pVTZ-F12          selected for orbital group  1
 Library entry C      P cc-pVTZ-F12          selected for orbital group  1
 Library entry C      D cc-pVTZ-F12          selected for orbital group  1
 Library entry C      F cc-pVTZ-F12          selected for orbital group  1
 Library entry N      S cc-pVTZ-F12          selected for orbital group  2
 Library entry N      P cc-pVTZ-F12          selected for orbital group  2
 Library entry N      D cc-pVTZ-F12          selected for orbital group  2
 Library entry N      F cc-pVTZ-F12          selected for orbital group  2
 Library entry O      S cc-pVTZ-F12          selected for orbital group  5
 Library entry O      P cc-pVTZ-F12          selected for orbital group  5
 Library entry O      D cc-pVTZ-F12          selected for orbital group  5
 Library entry O      F cc-pVTZ-F12          selected for orbital group  5
 Library entry H      S cc-pVTZ-F12          selected for orbital group  6
 Library entry H      P cc-pVTZ-F12          selected for orbital group  6
 Library entry H      D cc-pVTZ-F12          selected for orbital group  6


 PROGRAM * SEWARD (Integral evaluation for generally contracted gaussian basis sets)     Author: Roland Lindh, 1990

 Geometry written to block  1 of record 700


 Point group  C1  



 ATOMIC COORDINATES

 NR  ATOM    CHARGE       X              Y              Z

   1  C       6.00   -3.979000155    1.012284075   -0.286850837
   2  C       6.00   -2.602151203   -0.975304230    0.109932312
   3  C       6.00   -0.397593619   -2.473900077   -0.778552871
   4  N       7.00    2.223596153   -1.986857949   -0.960694516
   5  C       6.00    2.356493023    0.483869584   -0.090809068
   6  N       7.00    4.674737299    1.619171290   -1.135802855
   7  O       8.00    0.594966658    1.049957033    1.447089096
   8  H       1.00   -1.967500739    2.280820590   -1.518887620
   9  H       1.00   -5.423514455    0.644702650   -2.150481288
  10  H       1.00   -4.619167048    1.479782625    1.780582005
  11  H       1.00   -1.816933944   -4.443377241   -2.275654008
  12  H       1.00    5.674541044    1.548859991    0.709209058
  13  H       1.00    5.507968362   -0.521508469   -1.271102569

 Bond lengths in Bohr (Angstrom)

  1- 2  2.450236146   1- 8  2.678288525   1- 9  2.386389767   1-10  2.214192201   2- 3  2.809852234
       ( 1.296609130)       ( 1.417289252)       ( 1.262823081)       ( 1.171700053)       ( 1.486909768)

  3- 4  2.672268967   4- 5  2.622757482   5- 6  2.784812112   5- 7  2.405942829   6-12  2.099671443
       ( 1.414103839)       ( 1.387903489)       ( 1.473659107)       ( 1.273170116)       ( 1.111098278)

  6-13  2.301106223
       ( 1.217692973)

 Bond angles

  1- 2- 3  145.31608218   2- 1- 8   92.10154463   2- 1- 9  109.97777100   2- 1-10  100.51722849

  2-3-4  133.94217941   3-4-5  101.46614205   4-5-6  107.56386041   4-5-7  113.36297667

  5- 6-12   93.03846965   5- 6-13   86.80372182   6- 5- 7  138.88846614   8- 1- 9   99.69071512

  8- 1-10  123.13796328   9- 1-10  125.92271218  12- 6-13   81.26250689

 NUCLEAR CHARGE:                   52
 NUMBER OF PRIMITIVE AOS:         630
 NUMBER OF SYMMETRY AOS:          561
 NUMBER OF CONTRACTIONS:          479   (  479A   )
 NUMBER OF CORE ORBITALS:           7   (    7A   )
 NUMBER OF VALENCE ORBITALS:       34   (   34A   )


 NUCLEAR REPULSION ENERGY  282.47068959


 Eigenvalues of metric

         1 0.378E-04 0.541E-04 0.699E-04 0.914E-04 0.101E-03 0.102E-03 0.141E-03 0.156E-03


 OPERATOR DM      FOR CENTER  0  COORDINATES:    0.000000    0.000000    0.000000


 **********************************************************************************************************************************
 DATASETS  * FILE   NREC   LENGTH (MB)   RECORD NAMES
              1      18       38.60       500      610      700      900      950      970     1000      129      960     1100   
                                          VAR    BASINP    GEOM    SYMINP    ZMAT    AOBASIS   BASIS     P2S    ABASIS      S 
                                         1400     1410     1200     1210     1080     1600     1650     1700   
                                           T        V       H0       H01     AOSYM     SMH    MOLCAS    OPER   

 PROGRAMS   *        TOTAL       INT
 CPU TIMES  *         0.62      0.50
 REAL TIME  *         1.63 SEC
 DISK USED  *        39.21 MB
 **********************************************************************************************************************************


 PROGRAM * RHF-SCF (CLOSED SHELL)       Authors: W. Meyer, H.-J. Werner


 NUMBER OF ELECTRONS:      26+   26-    SPACE SYMMETRY=1    SPIN SYMMETRY: Singlet 
 CONVERGENCE THRESHOLDS:    1.00E-05 (Density)    1.00E-07 (Energy)
 INTEGRAL THRESHOLDS:       1.00E-11 (Initial)    1.00E-11 (Final)
 MAX. NUMBER OF ITERATIONS:       60
 INTERPOLATION TYPE:            DIIS
 INTERPOLATION STEPS:              2 (START)      1 (STEP)
 LEVEL SHIFTS:                  0.00 (CLOSED)  0.00 (OPEN) 




 Basis set AUG-CC-PVTZ/JKFIT generated.  Number of basis functions:   1004 

 Orbital guess generated from atomic densities. Full valence occupancy:   41
 Using density fitting in orbital guess

 Coulomb and exchange fitting
 Thresholds for fitting:       THRAO_COUL= 1.0D-14    THRAO_EXCH= 1.0D-12    THRMO= 1.0D-11    THRPROD= 1.0D-11    THRASM= 1.0D-11
                               THR2HLF=    1.0D-11

 Molecular orbital dump at record        2100.2

 Initial occupancy:  26

 ITERATION   DDIFF            GRAD            ENERGY        2-EL.EN.            DIPOLE MOMENTS         DIIS   CPU(IT)  CPU(TOT)  ORB.
    1      0.000D+00      0.000D+00      -338.27025986    802.409123   -1.45497    0.06013   -0.78793    0      4.6      9.8     start
    2      0.000D+00      0.338D-02      -338.37306713    796.819641   -1.16151    0.01660   -0.00907    1      4.7     14.5     diag
    3      0.363D-02      0.230D-02      -338.42022975    799.327434   -0.99890   -0.05378   -0.41908    2      4.6     19.1     diag
    4      0.149D-02      0.493D-03      -338.42621543    799.146001   -0.97890   -0.06635   -0.29870    3      4.6     23.8     diag
    5      0.531D-03      0.232D-03      -338.42778785    799.068933   -0.87935   -0.10949   -0.35437    4      4.6     28.4     diag
    6      0.276D-03      0.109D-03      -338.42842360    799.025387   -0.85804   -0.12027   -0.33755    5      4.6     33.0     diag
    7      0.194D-03      0.493D-04      -338.42864758    799.016476   -0.81489   -0.14071   -0.34153    6      4.6     37.5     diag
    8      0.137D-03      0.321D-04      -338.42871804    799.002528   -0.80462   -0.14545   -0.34055    7      4.6     42.1     diag
    9      0.763D-04      0.156D-04      -338.42874827    798.990075   -0.79380   -0.15050   -0.33919    8      4.6     46.7     diag
   10      0.568D-04      0.876D-05      -338.42875796    798.991641   -0.79071   -0.15118   -0.33840    9      4.6     51.3     orth
   11      0.312D-04      0.513D-05      -338.42876183    798.985108   -0.78953   -0.15204   -0.33741    9      4.6     55.9     diag
   12      0.227D-04      0.271D-05      -338.42876284    798.984791   -0.78916   -0.15188   -0.33691    9      4.6     60.6     diag
   13      0.133D-04      0.113D-05      -338.42876298    798.985457   -0.78921   -0.15216   -0.33678    9      4.6     65.2     diag
   14      0.484D-05      0.525D-06      -338.42876299    798.984868   -0.78923   -0.15215   -0.33670    9      4.7     69.9     diag
   15      0.145D-05      0.213D-06      -338.42876300    798.985185   -0.78923   -0.15216   -0.33675    0      4.6     74.5     orth

 Final occupancy:  26

 !RHF STATE  1.1 Energy              -338.428762995680
 Nuclear energy                       282.47068959
 One-electron energy                -1020.39204484
 Two-electron energy                  399.49259226
 Virial quotient                       -1.00445908
 !RHF STATE  1.1 Dipole moment         -0.78922880    -0.15215934    -0.33674597
 Dipole moment /Debye                  -2.00588814    -0.38672513    -0.85586682

 Orbital energies:

         1.1          2.1          3.1          4.1          5.1          6.1          7.1          8.1          9.1         10.1
    -20.543064   -15.620826   -15.567552   -11.394773   -11.380373   -11.316064   -11.306600    -1.398578    -1.223684    -1.162100

        11.1         12.1         13.1         14.1         15.1         16.1         17.1         18.1         19.1         20.1
     -1.109174    -0.912107    -0.768948    -0.707193    -0.659622    -0.639551    -0.634975    -0.625454    -0.562658    -0.543379

        21.1         22.1         23.1         24.1         25.1         26.1         27.1         28.1
     -0.500721    -0.479551    -0.474594    -0.443484    -0.416063    -0.312342     0.031864     0.046570


 HOMO     26.1    -0.312342 =      -8.4993eV
 LUMO     27.1     0.031864 =       0.8671eV
 LUMO-HOMO         0.344207 =       9.3663eV


 **********************************************************************************************************************************
 DATASETS  * FILE   NREC   LENGTH (MB)   RECORD NAMES
              1      18       38.60       500      610      700      900      950      970     1000      129      960     1100   
                                          VAR    BASINP    GEOM    SYMINP    ZMAT    AOBASIS   BASIS     P2S    ABASIS      S 
                                         1400     1410     1200     1210     1080     1600     1650     1700   
                                           T        V       H0       H01     AOSYM     SMH    MOLCAS    OPER   

              2       4        8.55       700     1000      520     2100   
                                         GEOM     BASIS   MCVARS     RHF  

 PROGRAMS   *        TOTAL     DF-HF       INT
 CPU TIMES  *        75.18     74.56      0.50
 REAL TIME  *        79.07 SEC
 DISK USED  *       207.02 MB
 **********************************************************************************************************************************


 World communicator: rank 0, size 1
 Shared-memory communicator: rank 0, size 1
 Current node: rank 0, 1 node(s) in total

 Restoring occupations from record    2100.2

 Program * PNO-LCCSD-F12   Authors:   H.-J. Werner (2012), M. Schwilk, Q. Ma (2016)

 Number of core orbitals:           7
 Number of closed-shell orbitals:  19
 Number of open-shell orbitals:     0
 Number of valence orbitals:       19
 Number of external orbitals:     453

 Basis set CC-PVTZ-F12/OPTRI generated.  Number of basis functions:   771 

 Generating union of orbital basis set VTZ-F12 and corresponding OPTRI basis

 Basis set CC-PVTZ-F12_CABS generated.   Number of basis functions:   1250 
 Basis set AUG-CC-PVTZ/MP2FIT generated. Number of basis functions:   1018 

 Calculation of CABS singles correction
 ======================================


 Molecular orbitals read from record     2100.2  Type=RHF/CANONICAL (state 1.1)
 Fock matrix read from record            2100.2  Type=RHF/TOTAL (state 1.1)
 Some Fock operators are calculated for F12-singles only.

 AO(A)-basis ORBITAL           loaded. Number of functions:     479
 RI(R)-basis CC-PVTZ-F12/OPTRI loaded. Number of functions:     771
 DF-basis AUG-CC-PVTZ/JKFIT    loaded. Number of functions:    1004

 Screening thresholds:   THRAO=  1.00D-10  THRMO=  1.00D-09  THRPROD=  1.00D-09
                         THRSW=  1.00D-05  THROV=  1.00D-12  THRAOF12= 1.00D-08

 CPU time for Fock operators                     24.93 sec

 Construction of ABS:
 Smallest eigenvalue of S          7.70E-05  (threshold= 1.00E-08)
 Ratio eigmin/eigmax               8.03E-06  (threshold= 1.00E-09)
 Smallest eigenvalue of S kept     7.70E-05  (threshold= 7.70E-05, 0 functions deleted, 771 kept)

 Construction of CABS:
 Smallest eigenvalue of S          2.69E-07  (threshold= 1.00E-08)
 Ratio eigmin/eigmax               2.69E-07  (threshold= 1.00E-09)
 Smallest eigenvalue of S kept     2.69E-07  (threshold= 2.69E-07, 0 functions deleted, 771 kept)

 CPU time for CABS singles                        0.76 sec

 CABS-singles contribution of  -0.00249480 patched into reference energy.
 New reference energy        -338.43125780

 Leaving lmp2-f12 by request (CABS_SINGLES < 0) after calculation of singles.

 USING TIGHT DOMAIN OPTIONS: THRLMO=0.20  IEXT=3  THROSV=  1.0D-10
                             THRPNO_LMP2=1.0D-08  THREN_LMP2=0.997
                             THRPNO_CC=  1.0D-08  THREN_CC=  0.997
                             THRTNO_T0=  1.0D-10  THRTNO_T=1.0D-07

 iclose= 0  iweak= 0  rclose= 0.00  rweak= 0.00  thrclos= 1.0D-04  thrweak= 1.0D-05  open-shell=F

 Use_GA=T  Use_PAO=T  PAO_pairdom=F  PAO_trans=T  LOCFIT= 1  LOCRI=T  EIJDIP=2  PROJECT_K=T

 Threshold for small PAO norm:    0.00D+00
 Threshold for redundancy check:  1.00D-06

 OPTIONS FOR CCSD:   method= LCCSD     icepa= -1  icepac=-1  icepaw= 2  keepcls=1  maxcls=1  maxclt=2  maxwkt=2  do_mp2w=F
                     project_k=T    project_j=ALL    idexp4_close=0

 OPTIONS FOR SINGLES IN CCSD:   isexp4=  1  isexp5= 0  isexp6= 0  project_je=T  project_s=WEAK
                                includeGE= 1  includeKEKJ= 1  includeJEKJ= 0  includeJ= 2  undress=T  project_ke=2

 Molecular orbitals read from record     2100.2  Type=RHF/CANONICAL (state 1.1)
 Orbital energies read from record       2100.2  Type=RHF/CANONICAL (state 1.1)
 Fock matrix read from record            2100.2  Type=RHF/TOTAL (state 1.1)

  Reference energy                   -338.428762995679
  CABS singles correction              -0.002494802028
  New reference energy               -338.431257797707


 Computing intrinsic bond orbitals
 =================================

 Basis set MINAO-AUTO-PP generated.      Number of basis functions:   41 

 Polarized AO type:                A = (O Ot + (1-O)(1-Ot)) P12
 Orthogonalization method:         Symmetric (Loewdin)
 Localization functional:          L = sum[A,i] <i|n_A|i>^4 -> max

 Localization group 1:  19 orbitals, occupancy  2.000
 Iterative localization: IB/PM,    9 iter; Final gradient 0.61E-08

 Summary of localized orbital composition:   [THRPRINT= 0.020]

   ORB  GRP  ORB.ENERGY      CENTERS/CHARGES
     8   1    -1.126203      O  7   1.183   C  5   0.811
     9   1    -0.964971      C  2   1.030   C  1   0.962
    10   1    -0.936281      N  4   1.106   C  5   0.863   (other: 0.031)
    11   1    -0.895903      N  4   1.000   C  3   0.982
    12   1    -0.878696      N  6   1.079   C  5   0.912
    13   1    -0.841523      C  3   0.996   C  2   0.996
    14   1    -0.820638      O  7   1.983
    15   1    -0.744154      N  6   1.208   H 12   0.737   C  5   0.048
    16   1    -0.678265      N  6   1.253   H 13   0.709   C  5   0.027
    17   1    -0.676441      C  1   1.158   H 10   0.800   C  2   0.033
    18   1    -0.653741      C  1   1.108   H  9   0.812   C  2   0.076
    19   1    -0.638421      N  6   1.941   C  5   0.045
    20   1    -0.594461      N  4   1.923   (other: 0.077)
    21   1    -0.573810      C  3   1.044   H 11   0.902   C  2   0.047
    22   1    -0.570262      O  7   1.818   C  2   0.067   C  5   0.062   (other: 0.054)
    23   1    -0.556413      C  1   1.043   H  8   0.853   C  2   0.075   C  3   0.025
    24   1    -0.520032      O  7   1.613   C  5   0.335   (other: 0.053)
    25   1    -0.470073      N  4   1.424   C  3   0.314   C  5   0.234   (other: 0.028)
    26   1    -0.433888      C  2   1.555   C  3   0.370   C  1   0.029   (other: 0.046)

 Localizing core orbitals

 CPU Time for LMOs:                 26.24 sec. Elapsed time:    27.66 sec. Memory usage:     0.92 MW (max).
 CPU Time for PAOs:                  0.01 sec. Elapsed time:     0.01 sec. Memory usage:     1.16 MW (max).

 Distance criteria for pair classes:       RCLOSE= 0.0  RWEAK= 0.0  RDIST= 0.0  RVDIST=-1.0
 Connectivity criteria for pair classes:   ICLOSE=   0  IWEAK=   0  IDIST=   0  IVDIST=  -1

 Augmenting orbital domains by 3 shell(s) of neighboring atoms.  Minimum radius:     7.00
 Augmenting RI domains by 4 shell(s) of neighboring atoms.  Minimum radius:          9.00
 Augmenting DF domains by 3 shell(s) of neighboring atoms.  Minimum radius:          7.00

 Generating LMO domains. Method=COEFF  Threshold=1.00D-06

 Fitting truncated LMOs to exact LMOs

 Minimum LMO domain size:                479
 Maximum LMO domain size:                479
 Average LMO domain size:              479.0   (sparsity   0.00 %)

 CPU time for Fitlmo:                   0.00 sec.

 PAO orbital domain sizes:   319 (min),  479 (max),  423.6 (average)
 DF  orbital domain sizes:   668 (min), 1018 (max),  890.3 (average)
 RI  orbital domain sizes:  1132 (min), 1250 (max), 1218.9 (average)

 CPU Time for Domains:               0.01 sec. Elapsed time:     0.01 sec. Memory usage:     0.46 MW (max).

 Number of residual matrices on current processor:       19
 Number of amplitude matrices on current processor:     190

 Fitting basis AUG-CC-PVTZ-MP2F loaded

 Threshold for block screening:     1.00D-05
 Threshold for integral screening:  1.00D-10

 CPU time for create_blocked_AO basis:                 0.01 sec, 479 functions, 20 blocks.
 CPU time for create_blocked_DF basis:                 0.05 sec, 1018 functions, 34 blocks.
 CPU time for create_blocked_RI basis:                 0.04 sec, 1250 functions, 13 blocks.

 Fitting basis center dimensions: min=   46, max=  106, average= 78.31
 Fitting basis block dimensions:  min=   1, max=  36, average= 29.94

 CPU time for project LMOs:                                    0.00 sec.
 CPU time for project PAOs:                                    0.00 sec.

 Screening PAOs with threshold      1.00D-06

 Minimum PAO vector length:              479
 Maximum PAO vector length:              479
 Average PAO vector length:            479.0  (sparsity  0.00 %)

 CPU time for cut/fit of PAO vectors:                          0.00 sec.

 CPU Time for Block_basis:           0.10 sec. Elapsed time:     0.11 sec. Memory usage:     0.53 MW (max).
 CPU Time for Orbitals(tot):        26.36 sec. Elapsed time:    27.80 sec. Memory usage:     0.53 MW (max).
 CPU Time for PAO integrals:         5.30 sec. Elapsed time:     5.40 sec. Memory usage:     6.53 MW (max).
 CPU Time for PAO integrals:         0.00 sec. Elapsed time:     0.00 sec. Memory usage:     3.99 MW (max).
 CPU Time for PAO amplitudes:        1.56 sec. Elapsed time:     1.79 sec. Memory usage:     8.00 MW (max).

 Generating OSVs using PAO(PERT) amplitudes, throsv= 1.0D-10

 Minimum OSV orbital domain size:        142
 Maximum OSV orbital domain size:        280
 Average OSV orbital domain size:      188.9

 CPU Time for OSV_generate:          0.51 sec. Elapsed time:     0.59 sec. Memory usage:     6.22 MW (max).

 Computing distant pair energies using multipole approximation up to order   3

 CPU time for computing multipole integrals (PAO/LMO):         0.52 sec
 CPU time for transforming integrals to OSV domains:           0.00 sec
 CPU time for distant pair energies:                           1.05 sec

 Distant pairs selected using the multipole order 3,  thrdist=1.0D-06  thrvdist=1.0D-07

 Semi-canonical distant pair energies, multipole-orders 1-3    0.00000000  0.00000000  0.00000000


 CPU Time for osv_mltp:              0.99 sec. Elapsed time:     1.05 sec. Memory usage:     2.07 MW (max).

 Number of strong pairs:                 190
 Number of close pairs:                    0
 Number of weak pairs:                     0
 Number of distant pairs:                  0  (treated by iterative multipole approximation, thrdist= 1.0D-06)
 Number of very distant pairs:             0  (treated by non-iterative multipole approximation, thrvdist= 1.0D-07)
 Total number of pairs in LMP2:          190

 Number of pairs per orbital (min, max, average):

 Strong pairs:              19    19    19.0
 Close pairs:                0     0     0.0
 Weak  pairs:                0     0     0.0
 Distant  pairs:             0     0     0.0
 Very distant pairs:         0     0     0.0

 CPU Time for Distribute_pairs:      0.00 sec. Elapsed time:     0.00 sec. Memory usage:     2.07 MW (max).

 Number of residual matrices on current processor:      190
 Number of amplitude matrices on current processor:     190
 F12 pair list with SKIPF=3, 190 pairs.

 Minimum OSV pair domain size:           142
 Maximum OSV pair domain size:           549
 Average OSV pair domain size:         358.9
 Total number of OSVs:                  3589
 Total number of OSV amplitudes:    25703779

 CPU Time for OSV_pairdom:          11.01 sec. Elapsed time:    11.73 sec. Memory usage:    27.07 MW (max).
 CPU Time for OSV integrals:        14.52 sec. Elapsed time:    14.93 sec. Memory usage:    54.85 MW (max).
 CPU Time for OSV_smatrix:           0.49 sec. Elapsed time:     0.53 sec. Memory usage:    51.29 MW (max).

 nosvmx= 549  nosvt= 3589  lens=         0  lenr=  24223948  lent=  25703779  leng=  25703779  lenw=  24996372  lenosv=    301401

 Generating PNOs using OSV(SC) amplitudes, THRPNO_EN=0.9970,  THRPNO_OCC=1.0D-08,  KEEP_DIAG=T  THRPNO_DIAG=0.0D+00

 Generating PNOs for LCCSD with thresholds: THREN_CC:  0.99700, THRPNO_CC:1.0D-08

                                                PNO-LMP2     PNO_LCCSD
 Minimum PNO domain size:                            70            70
 Maximum PNO domain size:                           157           157
 Average PNO domain size:                         107.3         107.3
 Total number of PNOs:                            20387         20387
 Total number of PNO amplitudes:                2231219
 Local number of PNO amplitudes:                2231219
 Length of local PNO residual:                  2231219
 Length of local W-matrix:                      7449262

 Semi-canonical OSV correlation energy:     -1.33281288
 Semi-canonical PNO correlation energies:   -1.33237943   -1.33237943

 Semi-canonical domain correction:          -0.00043345   -0.00043345

 CPU Time for PNO_generate:          7.19 sec. Elapsed time:     7.29 sec. Memory usage:    55.35 MW (max).

 Local length of PNO overlap matrix for PNO-LMP2:   37975566  Number of blocks:    3249  number of pairs   190

 GA space for pno_smat:             37.98 MW (tot),             37.98 MW (min),             37.98 MW (max), using processor specific storage

 CPU Time for READ_OSV_SBUF:         0.00 sec. Elapsed time:     0.01 sec. Memory usage:    15.10 MW (max).
 CPU Time for PNO_SMAT:              4.02 sec. Elapsed time:     4.26 sec. Memory usage:    15.02 MW (max).

 Denominator shift:          0.2000

 ITER.      SQ.NORM     CORR.ENERGY   TOTAL ENERGY   ENERGY CHANGE     VAR    DIIS
   1      0.41114821    -1.36074197  -339.79199977    -1.36074197  0.38D-02   1  1
   2      0.43547338    -1.37471506  -339.80597286    -0.01397309  0.17D-03   2  2
   3      0.44936834    -1.37530255  -339.80656034    -0.00058749  0.63D-05   3  3
   4      0.45085700    -1.37532022  -339.80657802    -0.00001768  0.37D-06   4  4
   5      0.45084863    -1.37532125  -339.80657905    -0.00000103  0.17D-07   5  5
   6      0.45082742    -1.37532130  -339.80657910    -0.00000005  0.75D-09   6  6

                                            PNO-LMP2        PNO-LMP2_CORR
  PNO-LMP2 correlation energy          -1.375321299912    -1.375754748960
 !PNO-LMP2 total energy              -339.806579097619  -339.807012546667

 CPU Time for PNO-LMP2:              5.69 sec. Elapsed time:     6.25 sec. Memory usage:    18.08 MW (max).

 Computing the F12/3*A(LOC,FIX) energy correction
 ================================================
 Options for MP2-F12: THRF12=0.0E+00  THRVAL=0.1E-03  N_RI_BATCH=0
 Geminal basis:    OPTFULL  GEM_TYPE=SLATER  BETA=1.0  NGEM=6

 Optimizing Gaussian exponents for each gem_beta

 Geminal optimization for beta= 1.0000
 Weight function:   m=0, omega= 1.4646

 Augmented Hessian optimization of geminal fit. Trust ratio= 0.40000
 Convergence reached after   2 iterations. Final gradient= 8.53D-16, Step= 4.26D-06, Delta= 1.28D-09

 Alpha:                 0.19532     0.81920     2.85917     9.50073    35.69989   197.79328
 Coeff:                 0.27070     0.30552     0.18297     0.10986     0.06810     0.04224

 Screened 190 pairs with threshold 0.0E+00, 190 pairs actually used.

  F12(PNO) correction                  -0.114751811273
  PNO-LMP2-F12(PNO) corr. energy       -1.490073111185
 !PNO-LMP2-F12(PNO) total energy     -339.921330908892

 CPU Time for F12_energy:          267.90 sec. Elapsed time:   270.79 sec. Memory usage:    35.02 MW (max).

 PNO-LMP2-F12 energy contributions
 =================================
                            OSV-LMP2(SC)     PNO-LMP2     PNO-SCS-LMP2   F12 contrib.  PNO-LMP2-F12  PNO-SCS-LMP2-F12  %(PNO/OSV)  AVDOM(PNO)
 Strong pair energy:        -1.33281288    -1.37532130    -1.34998124    -0.11475181    -1.49007311    -1.48066538       103.19      107.3
 Close pair energy:          0.00000000     0.00000000     0.00000000     0.00000000     0.00000000     0.00000000         0.00        0.0
 Weak pair energy :          0.00000000     0.00000000     0.00000000     0.00000000     0.00000000     0.00000000         0.00        0.0
 Distant pair energy:        0.00000000     0.00000000     0.00000000     0.00000000     0.00000000     0.00000000         0.00        0.0
 Total correl. energy:      -1.33281288    -1.37532130    -1.34998124    -0.11475181    -1.49007311    -1.48066538       103.19      107.3

 GA space for pno_smat:             37.98 MW (tot),             37.98 MW (min),             37.98 MW (max), using processor specific storage

 CPU Time for READ_OSV_SBUF:         0.04 sec. Elapsed time:     0.12 sec. Memory usage:    13.86 MW (max).
 CPU Time for PNO_SMAT:              3.93 sec. Elapsed time:     4.21 sec. Memory usage:    13.78 MW (max).

 Denominator shift:          0.2000

 ITER.      SQ.NORM     CORR.ENERGY   TOTAL ENERGY   ENERGY CHANGE     VAR    DIIS
   1      0.45083161    -1.37532130  -339.80657910    -1.37532130  0.96D-10   1  1
   2      0.45083168    -1.37532130  -339.80657910    -0.00000000  0.90D-11   2  2

 LMP2 results with LCCSD domains:
 ================================
                                            PNO-LMP2        PNO-LMP2_CORR
  PNO-LMP2 correlation energy          -1.375321302091    -1.375754748960
  PNO-LMP2 total energy              -339.806579099798  -339.807012546667
  F12(PNO) correction                  -0.114751811273
  PNO-LMP2-F12 correlation energy      -1.490073113365
  PNO-LMP2-F12 total energy          -339.921330911071

  PNO-LMP2-F12 domain correction        0.000000002179

 CPU Time for PNO-LMP2(tot):       325.06 sec. Elapsed time:   331.02 sec. Memory usage:    67.82 MW (max).

 Energy thresholds for pair classes:  THRCLOSE=1.00D-04  THRWEAK= 1.00D-05  THRDISTC=0.00D+00

 Strong and close pairs optimized in LCCSD, close pair residuals are approximated (keepcls=1).

 Number of optimized pairs:         190
 Number of strong pairs:            174
 Number of close pairs:              16
 Number of weak pairs:                0
 Total number of pairs:             190

 Length of pair-specific S-blocks:   813.90 MW,  length of unique S-blocks   206.70 MW

 CPU Time for LCC_opdom:             0.09 sec. Elapsed time:     0.09 sec. Memory usage:     0.86 MW (max).
 CPU Time for LCC_float:             0.00 sec. Elapsed time:     0.01 sec. Memory usage:     0.53 MW (max).

 CPU Time for LCC_opdom:             0.08 sec. Elapsed time:     0.08 sec. Memory usage:     0.86 MW (max).
 CPU Time for LCC_load:              0.04 sec. Elapsed time:     0.04 sec. Memory usage:    12.10 MW (max).

 Estimated GA usage of PNO-LCCSD-F12 integrals:                  0.00 MW
 Maximum GA usage after allocating GAs for CCSD integrals:       0.00 MW

 CPU Time for CCSD integrals:     2038.60 sec. Elapsed time:  2252.73 sec. Memory usage:    95.97 MW (max).

 GA space for pno_smat:            206.70 MW (tot),            206.70 MW (min),            206.70 MW (max), using node specific storage
 CPU Time for OSV_SMAT_LCC:          0.51 sec. Elapsed time:     0.55 sec. Memory usage:   103.75 MW (max).
 CPU Time for READ_OSV_SBUF:         0.00 sec. Elapsed time:     0.00 sec. Memory usage:   103.75 MW (max).
 CPU Time for PNO_SMAT_LCC:         21.24 sec. Elapsed time:    22.54 sec. Memory usage:    97.03 MW (max).

 Current GA usage:                   0.00 MW.  Maximum GA usage up to this point:            0.00 MW

 Solving PNO-LCCSD equations

 K-Operators in non-linear terms are projected

 Close pairs are approximated (keepcls=1, max_ijkl=0, skip_ijkl=0, maxik=0)

 Weak pairs pairs are treated by CEPA(2)

 Denominator shifts:     0.15 (singles),  0.20 (doubles)

 ITER.      SQ.NORM     CORR.ENERGY   TOTAL ENERGY   ENERGY CHANGE     VAR        VART1     DIIS     TIME
    1     0.46742111    -1.42459426  -339.85585206     0.06547885    0.67D-02    0.17D-01   1  1   203.26
    2     0.43883961    -1.47319862  -339.90445642    -0.04860436    0.14D-02    0.54D-03   2  2   407.75
    3     0.48404416    -1.47865375  -339.90991154    -0.00545513    0.19D-03    0.53D-03   3  3   606.96
    4     0.50290794    -1.48078417  -339.91204197    -0.00213042    0.44D-04    0.11D-03   4  4   804.65
    5     0.51240251    -1.48162370  -339.91288149    -0.00083953    0.10D-04    0.37D-04   5  5  1005.89
    6     0.51575521    -1.48188558  -339.91314338    -0.00026189    0.32D-05    0.14D-04   6  6  1204.22
    7     0.51838768    -1.48208910  -339.91334690    -0.00020352    0.90D-06    0.46D-05   7  7  1401.39
    8     0.51982016    -1.48216534  -339.91342314    -0.00007624    0.30D-06    0.15D-05   8  8  1598.21
    9     0.52019656    -1.48217628  -339.91343408    -0.00001093    0.11D-06    0.51D-06   1  8  1795.91
   10     0.52045830    -1.48217976  -339.91343756    -0.00000348    0.36D-07    0.18D-06   2  8  2001.19
   11     0.52050364    -1.48218226  -339.91344006    -0.00000250    0.10D-07    0.59D-07   3  8  2204.06
   12     0.52055337    -1.48218141  -339.91343921     0.00000085    0.31D-08    0.25D-07   4  8  2401.02

 Convergence reached

  T1 diagnostic   0.02375
  D1 diagnostic   0.09413
   
  Reference energy                   -338.428762995679
  CABS singles correction              -0.002494802028
  New reference energy               -338.431257797707

  Correlation contributions without domain correction:

  PNO-LCCSD-F12 singles energy          0.001004937181
  PNO-LCCSD-F12a strong pair energy    -1.482430850835
  PNO-LCCSD-F12b strong pair energy    -1.460473188327
  PNO-LCCSD-F12 close pair energy      -0.000755497165
  PNO-CEPA(2)-F12 weak pair energy      0.000000000000
  PNO-SCS-LMP2 distant pair energy      0.000000000000

  Results including domain correction:

  PNO-LMP2-F12 correction               0.000000002179
  PNO-LCCSD-F12a correlation energy    -1.482181408639
  PNO-LCCSD-F12b correlation energy    -1.460223746132

 !PNO-LCCSD-F12a total energy        -339.913439206346
 !PNO-LCCSD-F12b total energy        -339.891481543839

 Maximum stack memory usage in PNO-LCCSD iterations: 111.91 MW
 Maximum GA memory usage up to this point: .00 MW
 Maximum local disk usage in MB: 45870.59 (current)   45870.59 (maximum)   45870.59 (average)
 Maximum local disk usage per node: 45870.59 MB

 CPU Time for PNO_LCCSD(it):      1792.86 sec. Elapsed time:  2401.13 sec. Memory usage:    98.28 MW (max).

 GA_Put processed 1185.39 MW globally, average elapsed time per process: 8.49 sec
 GA_Get processed 226557.76 MW globally, average elapsed time per process: 385.03 sec

 REMARK: Memory usage printed may not be correct.
 CPU Time for LCCSD(tot):         3853.43 sec. Elapsed time:  4687.21 sec. Memory usage:   103.75 MW (max).

 Direct file usage                 292.04 MB (local),          292.04 MB (max),            292.04 MB (tot)

 Max. memory usage (overall):      103.75 MW (local),          103.75 MW (max),            103.75 MW (tot)
 Max. GA usage (overall):            0.00 MW (local),            0.00 MW (max),              0.00 MW (tot)
 Max. memory+GA usage:             103.75 MW (local),          103.75 MW (max),            103.75 MW (tot)


 **********************************************************************************************************************************
 DATASETS  * FILE   NREC   LENGTH (MB)   RECORD NAMES
              1      19       38.70       500      610      700      900      950      970     1000      129      960     1100   
                                          VAR    BASINP    GEOM    SYMINP    ZMAT    AOBASIS   BASIS     P2S    ABASIS      S 
                                         1400     1410     1200     1210     1080     1600     1650     1700      960(1)
                                           T        V       H0       H01     AOSYM     SMH    MOLCAS    OPER    ABASIS    

              2       5       12.23       700     1000      520     2100     7360   
                                         GEOM     BASIS   MCVARS     RHF    F12ABS    

 PROGRAMS   *        TOTAL LCCSD-F12     DF-HF       INT
 CPU TIMES  *      4280.08   4204.87     74.56      0.50
 REAL TIME  *      5125.17 SEC
 DISK USED  *       994.62 MB
 **********************************************************************************************************************************

 PNO-LCCSD-F12/cc-pVTZ-F12 energy=   -339.891481543839

   PNO-LCCSD-F12           DF-HF
   -339.91343921   -338.42876300
 **********************************************************************************************************************************
 Molpro calculation terminated
