
 Primary working directories    : /var/tmp/pbs.368416.bp1/molpro.KFXoQVLkTi
 Secondary working directories  : /var/tmp/pbs.368416.bp1/molpro.KFXoQVLkTi
 Wavefunction directory         : /home/lb17101/molpro_test/inp/lowmem/
 Main file repository           : /home/lb17101/molpro_test/inp/lowmem/

 id        : uob

 Nodes                         nprocs
 bp1-01-08-02.data.bp.acrc.priv    1

 Using customized tuning parameters: mindgm=1; mindgv=20; mindgc=4; mindgr=1; noblas=0; minvec=7
 default implementation of scratch files=df  


 Variables initialized (934), CPU time= 0.00 sec
 geomtyp=xyz
 nosym
 noorient
 geometry={
  O      -1.049472663421      -1.852859168200       0.763061125536
  C      -0.509268506747      -0.433761368700       1.024577681349
  C       0.770416392874      -0.574485423187      -0.086947993704
  C       1.174884811795       0.757852605517      -0.434819171964
  C       0.222465949756       1.539500680046       0.011579381762
  C      -1.523107057727       0.214093232642      -0.313334394692
  C      -0.503208337603      -1.217176803811      -0.654157377320
  H      -0.679109253028      -0.025096067312       2.211029468817
  H       1.648691354217      -1.349975301646      -0.019497629914
  H       2.098793408134       1.491510097759      -0.435150204048
  H       0.443107350787       2.729855232221       0.397744902001
  H      -1.323118651666       1.385355044179      -0.213578350879
  H      -0.278712078420      -2.028811954776      -1.664570408723
 }
 basis={
 default=vdz-f12
 set,jkfit,context=jkfit
 default,avtz
 set,mp2fit,context=mp2fit
 default,avdz
 set,ri,context=jkfit
 default,avtz
 }
 explicit,ri_basis=ri,df_basis=mp2fit,df_basis_exch=jkfit
 df-hf,basis=jkfit
 pno-lccsd(t)-f12,cabs_singles=1,scale_trip=1
 Commands  initialized (763), CPU time= 0.01 sec, 617 directives.
 Default parameters read. Elapsed time= 0.09 sec

 Checking input...
 Passed
1


                                         ***  PROGRAM SYSTEM MOLPRO  ***
                                       Copyright, TTI GmbH Stuttgart, 2015
                                    Version 2019.2 linked Oct 25 2019 22:50:27


 **********************************************************************************************************************************
 LABEL *                                                                                 
  64 bit serial version                                                                  DATE: 23-Sep-20          TIME: 02:41:30  
 **********************************************************************************************************************************

 SHA1:             8dbd9ae1082e4ce945b0f27595c9eb2d4aa09004
 **********************************************************************************************************************************
 SETTING GEOMTYP        =    XYZ

 Variable memory set to 1024000000 words,  buffer space 

 ZSYMEL=NOSYM

 SETTING BASIS          =    VDZ-F12


 Recomputing integrals since basis changed


 Using spherical harmonics

 Library entry O      S cc-pVDZ-F12          selected for orbital group  1
 Library entry O      P cc-pVDZ-F12          selected for orbital group  1
 Library entry O      D cc-pVDZ-F12          selected for orbital group  1
 Library entry C      S cc-pVDZ-F12          selected for orbital group  2
 Library entry C      P cc-pVDZ-F12          selected for orbital group  2
 Library entry C      D cc-pVDZ-F12          selected for orbital group  2
 Library entry H      S cc-pVDZ-F12          selected for orbital group  3
 Library entry H      P cc-pVDZ-F12          selected for orbital group  3


 PROGRAM * SEWARD (Integral evaluation for generally contracted gaussian basis sets)     Author: Roland Lindh, 1990

 Geometry written to block  1 of record 700


 Point group  C1  



 ATOMIC COORDINATES

 NR  ATOM    CHARGE       X              Y              Z

   1  O       8.00   -1.983215909   -3.501396375    1.441976544
   2  C       6.00   -0.962378002   -0.819690190    1.936171211
   3  C       6.00    1.455875984   -1.085620112   -0.164307895
   4  C       6.00    2.220210522    1.432133867   -0.821689149
   5  C       6.00    0.420399717    2.909234654    0.021881860
   6  C       6.00   -2.878255197    0.404577575   -0.592116191
   7  C       6.00   -0.950925942   -2.300130804   -1.236178285
   8  H       1.00   -1.283330497   -0.047424694    4.178240149
   9  H       1.00    3.115575123   -2.551083595   -0.036845181
  10  H       1.00    3.966144733    2.818545597   -0.822314709
  11  H       1.00    0.837351537    5.158678749    0.751628932
  12  H       1.00   -2.500331882    2.617941619   -0.403604589
  13  H       1.00   -0.526689496   -3.833898953   -3.145582188

 Bond lengths in Bohr (Angstrom)

 1-2  2.911681038  1-7  3.111458635  2-3  3.214138071  2-6  3.400243253  2-7  3.500805177
     ( 1.540795251)     ( 1.646513002)     ( 1.700848620)     ( 1.799331241)     ( 1.852546320)

 2-8  2.392964192  3-4  2.712091905  3-7  2.901144234  3-9  2.217753637  4-5  2.476440533
     ( 1.266302117)     ( 1.435177230)     ( 1.535219414)     ( 1.173584684)     ( 1.310475894)

  4-10  2.229444806   5-11  2.401328454   6- 7  3.383025489   6-12  2.253296041   7-13  2.485607482
       ( 1.179771385)       ( 1.270728294)       ( 1.790219993)       ( 1.192392914)       ( 1.315326835)

 Bond angles

  1-2-3   94.39677864   1-2-6   90.45059767   1-2-7   57.17044517   1-2-8  114.15681031

  1- 7- 2   51.84429119   1- 7- 3   96.82572772   1- 7- 6   87.46598176   1- 7-13  118.65919494

  2-1-7   70.98526365   2-3-4  107.07568412   2-3-7   69.62936597   2-3-9  125.46253576

  2- 6- 7   62.14061977   2- 6-12  101.35943393   2- 7- 3   59.39477277   2- 7- 6   59.17105699

  2- 7-13  163.25864346   3- 2- 6   88.15444875   3- 2- 7   50.97586126   3- 2- 8  137.72429790

  3- 4- 5  105.44608277   3- 4-10  142.94674450   3- 7- 6   93.87604209   3- 7-13  113.61213076

  4- 3- 7  122.20045134   4- 3- 9  114.61128551   4- 5-11  122.41584332   5- 4-10  101.43944415

  6- 2- 7   58.68832325   6- 2- 8  120.32495520   6- 7-13  137.46110132   7- 2- 8  170.38397888

  7- 3- 9  111.43581250   7- 6-12  134.88626563

 NUCLEAR CHARGE:                   50
 NUMBER OF PRIMITIVE AOS:         353
 NUMBER OF SYMMETRY AOS:          339
 NUMBER OF CONTRACTIONS:          264   (  264A   )
 NUMBER OF CORE ORBITALS:           7   (    7A   )
 NUMBER OF VALENCE ORBITALS:       34   (   34A   )


 NUCLEAR REPULSION ENERGY  271.35538770


 Basis set:  JKFIT                   
 Basis size:  1004
 Attributes:
 Sphericals:   T
 Basis set:  MP2FIT                  
 Basis size:   642
 Attributes:
 Sphericals:   T
 Basis set:  RI                      
 Basis size:  1004
 Attributes:
 Sphericals:   T

 **********************************************************************************************************************************


 Eigenvalues of metric

         1 0.572E-04 0.131E-03 0.154E-03 0.207E-03 0.348E-03 0.379E-03 0.525E-03 0.600E-03


 OPERATOR DM      FOR CENTER  0  COORDINATES:    0.000000    0.000000    0.000000


 **********************************************************************************************************************************
 DATASETS  * FILE   NREC   LENGTH (MB)   RECORD NAMES
              1      18       32.76       500      610      700      900      950      970     1000      129      960     1100   
                                          VAR    BASINP    GEOM    SYMINP    ZMAT    AOBASIS   BASIS     P2S    ABASIS      S 
                                         1400     1410     1200     1210     1080     1600     1650     1700   
                                           T        V       H0       H01     AOSYM     SMH    MOLCAS    OPER   

 PROGRAMS   *        TOTAL       INT
 CPU TIMES  *         0.54      0.43
 REAL TIME  *         1.48 SEC
 DISK USED  *        33.30 MB
 **********************************************************************************************************************************


 PROGRAM * RHF-SCF (CLOSED SHELL)       Authors: W. Meyer, H.-J. Werner


 NUMBER OF ELECTRONS:      25+   25-    SPACE SYMMETRY=1    SPIN SYMMETRY: Singlet 
 CONVERGENCE THRESHOLDS:    1.00E-05 (Density)    1.00E-07 (Energy)
 INTEGRAL THRESHOLDS:       1.00E-11 (Initial)    1.00E-11 (Final)
 MAX. NUMBER OF ITERATIONS:       60
 INTERPOLATION TYPE:            DIIS
 INTERPOLATION STEPS:              2 (START)      1 (STEP)
 LEVEL SHIFTS:                  0.00 (CLOSED)  0.00 (OPEN) 





 Orbital guess generated from atomic densities. Full valence occupancy:   41
 Using density fitting in orbital guess

 Coulomb and exchange fitting
 Thresholds for fitting:       THRAO_COUL= 1.0D-14    THRAO_EXCH= 1.0D-12    THRMO= 1.0D-11    THRPROD= 1.0D-11    THRASM= 1.0D-11
                               THR2HLF=    1.0D-11

 Molecular orbital dump at record        2100.2

 Initial occupancy:  25

 ITERATION   DDIFF            GRAD            ENERGY        2-EL.EN.            DIPOLE MOMENTS         DIIS   CPU(IT)  CPU(TOT)  ORB.
    1      0.000D+00      0.000D+00      -304.93454849    748.956920    1.99801    2.13950   -0.34105    0      1.8      3.9     start
    2      0.000D+00      0.422D-02      -305.00950081    750.801068    1.12065    0.71570   -0.27469    1      1.9      5.8     diag
    3      0.678D-02      0.341D-02      -305.06312799    749.865702    1.42955    1.22905   -0.22499    2      1.9      7.7     diag
    4      0.314D-02      0.612D-03      -305.06725005    750.146791    1.27109    1.08890   -0.22988    3      1.8      9.5     diag
    5      0.103D-02      0.237D-03      -305.06798972    750.043653    1.32936    1.11221   -0.21665    4      1.8     11.2     diag
    6      0.443D-03      0.102D-03      -305.06822300    750.046171    1.27786    1.07635   -0.21909    5      1.8     13.0     diag
    7      0.249D-03      0.547D-04      -305.06830939    750.054366    1.27427    1.07161   -0.20891    6      1.9     14.9     diag
    8      0.164D-03      0.282D-04      -305.06833716    750.046725    1.26548    1.06363   -0.21240    7      1.8     16.6     diag
    9      0.910D-04      0.159D-04      -305.06834771    750.039741    1.25884    1.05911   -0.20809    8      1.8     18.4     diag
   10      0.670D-04      0.663D-05      -305.06834930    750.047467    1.25741    1.05664   -0.20868    9      1.8     20.2     orth
   11      0.257D-04      0.313D-05      -305.06834967    750.045031    1.25591    1.05575   -0.20822    9      1.8     22.0     diag
   12      0.129D-04      0.133D-05      -305.06834974    750.045120    1.25541    1.05507   -0.20821    9      1.9     23.9     diag
   13      0.613D-05      0.572D-06      -305.06834975    750.045509    1.25528    1.05511   -0.20816    0      1.9     25.8     orth

 Final occupancy:  25

 !RHF STATE  1.1 Energy              -305.068349752128
 Nuclear energy                       271.35538770
 One-electron energy                 -951.44649180
 Two-electron energy                  375.02275435
 Virial quotient                       -1.00634912
 !RHF STATE  1.1 Dipole moment          1.25527596     1.05511235    -0.20815872
 Dipole moment /Debye                   3.19038428     2.68165244    -0.52905204

 Orbital energies:

         1.1          2.1          3.1          4.1          5.1          6.1          7.1          8.1          9.1         10.1
    -20.576305   -11.376137   -11.359525   -11.327847   -11.308820   -11.299461   -11.267978    -1.331483    -1.155380    -1.002843

        11.1         12.1         13.1         14.1         15.1         16.1         17.1         18.1         19.1         20.1
     -0.923078    -0.829711    -0.756990    -0.710843    -0.665382    -0.632516    -0.578863    -0.551471    -0.530163    -0.509162

        21.1         22.1         23.1         24.1         25.1         26.1         27.1
     -0.469371    -0.444227    -0.392728    -0.373923    -0.326284     0.040952     0.042009


 HOMO     25.1    -0.326284 =      -8.8786eV
 LUMO     26.1     0.040952 =       1.1144eV
 LUMO-HOMO         0.367237 =       9.9930eV


 **********************************************************************************************************************************
 DATASETS  * FILE   NREC   LENGTH (MB)   RECORD NAMES
              1      18       32.76       500      610      700      900      950      970     1000      129      960     1100   
                                          VAR    BASINP    GEOM    SYMINP    ZMAT    AOBASIS   BASIS     P2S    ABASIS      S 
                                         1400     1410     1200     1210     1080     1600     1650     1700   
                                           T        V       H0       H01     AOSYM     SMH    MOLCAS    OPER   

              2       4        4.67       700     1000      520     2100   
                                         GEOM     BASIS   MCVARS     RHF  

 PROGRAMS   *        TOTAL     DF-HF       INT
 CPU TIMES  *        26.34     25.80      0.43
 REAL TIME  *        28.81 SEC
 DISK USED  *       129.98 MB
 **********************************************************************************************************************************

 Basis set:  JKFIT                   
 Basis size:  1004
 Attributes:
 Sphericals:   T
 Basis set:  MP2FIT                  
 Basis size:   642
 Attributes:
 Sphericals:   T
 Basis set:  RI                      
 Basis size:  1004
 Attributes:
 Sphericals:   T

 World communicator: rank 0, size 1
 Shared-memory communicator: rank 0, size 1
 Current node: rank 0, 1 node(s) in total

 Restoring occupations from record    2100.2

 Program * PNO-LCCSD(T)-F12   Authors:   H.-J. Werner (2012), M. Schwilk, Q. Ma (2016)

 Number of core orbitals:           7
 Number of closed-shell orbitals:  18
 Number of open-shell orbitals:     0
 Number of valence orbitals:       18
 Number of external orbitals:     239


 Calculation of CABS singles correction
 ======================================


 Molecular orbitals read from record     2100.2  Type=RHF/CANONICAL (state 1.1)
 Fock matrix read from record            2100.2  Type=RHF/TOTAL (state 1.1)
 Some Fock operators are calculated for F12-singles only.

 AO(A)-basis ORBITAL           loaded. Number of functions:     264
 RI(R)-basis RI                loaded. Number of functions:    1004
 DF-basis JKFIT                loaded. Number of functions:    1004

 Screening thresholds:   THRAO=  1.00D-10  THRMO=  1.00D-09  THRPROD=  1.00D-09
                         THRSW=  1.00D-05  THROV=  1.00D-12  THRAOF12= 1.00D-08

 CPU time for Fock operators                     25.46 sec

 Construction of ABS:
 Smallest eigenvalue of S          3.51E-07  (threshold= 1.00E-08)
 Ratio eigmin/eigmax               2.41E-08  (threshold= 1.00E-09)
 Smallest eigenvalue of S kept     3.51E-07  (threshold= 3.51E-07, 0 functions deleted, 1004 kept)

 Construction of CABS:
 Smallest eigenvalue of S          1.27E-08  (threshold= 1.00E-08)
 Ratio eigmin/eigmax               1.27E-08  (threshold= 1.00E-09)
 Smallest eigenvalue of S kept     1.27E-08  (threshold= 1.27E-08, 0 functions deleted, 1004 kept)

 CPU time for CABS singles                        0.65 sec

 CABS-singles contribution of  -0.02241397 patched into reference energy.
 New reference energy        -305.09076372

 Leaving lmp2-f12 by request (CABS_SINGLES < 0) after calculation of singles.

 iclose= 0  iweak= 0  rclose= 0.00  rweak= 0.00  thrclos= 1.0D-04  thrweak= 1.0D-05  open-shell=F

 Use_GA=T  Use_PAO=T  PAO_pairdom=F  PAO_trans=T  LOCFIT= 1  LOCRI=T  EIJDIP=2  PROJECT_K=T

 Threshold for small PAO norm:    0.00D+00
 Threshold for redundancy check:  1.00D-06

 OPTIONS FOR CCSD:   method= LCCSD     icepa= -1  icepac=-1  icepaw= 2  keepcls=1  maxcls=1  maxclt=2  maxwkt=2  do_mp2w=F
                     project_k=T    project_j=ALL    idexp4_close=0

 OPTIONS FOR SINGLES IN CCSD:   isexp4=  1  isexp5= 0  isexp6= 0  project_je=T  project_s=WEAK
                                includeGE= 1  includeKEKJ= 1  includeJEKJ= 0  includeJ= 2  undress=T  project_ke=2

 Molecular orbitals read from record     2100.2  Type=RHF/CANONICAL (state 1.1)
 Orbital energies read from record       2100.2  Type=RHF/CANONICAL (state 1.1)
 Fock matrix read from record            2100.2  Type=RHF/TOTAL (state 1.1)

  Reference energy                   -305.068349752128
  CABS singles correction              -0.022413970792
  New reference energy               -305.090763722920


 Computing intrinsic bond orbitals
 =================================

 Basis set MINAO-AUTO-PP generated.      Number of basis functions:   41 

 Polarized AO type:                A = (O Ot + (1-O)(1-Ot)) P12
 Orthogonalization method:         Symmetric (Loewdin)
 Localization functional:          L = sum[A,i] <i|n_A|i>^4 -> max

 Localization group 1:  18 orbitals, occupancy  2.000
 Iterative localization: IB/PM,    9 iter; Final gradient 0.32E-08

 Summary of localized orbital composition:   [THRPRINT= 0.020]

   ORB  GRP  ORB.ENERGY      CENTERS/CHARGES
     8   1    -0.927107      O  1   1.993
     9   1    -0.874977      C  5   1.008   C  4   0.972
    10   1    -0.822940      C  4   1.019   C  3   0.963
    11   1    -0.766624      O  1   1.304   C  2   0.670   (other: 0.026)
    12   1    -0.758436      C  3   0.983   C  7   0.978   (other: 0.039)
    13   1    -0.699187      O  1   1.251   C  7   0.698   (other: 0.051)
    14   1    -0.678302      C  2   1.159   H  8   0.834
    15   1    -0.674030      C  5   1.154   H 11   0.831
    16   1    -0.669022      C  4   1.142   H 10   0.814   C  5   0.021   (other: 0.023)
    17   1    -0.668608      C  3   1.126   H  9   0.852   (other: 0.021)
    18   1    -0.657510      C  7   1.149   H 13   0.844
    19   1    -0.645759      C  2   0.986   C  3   0.956   (other: 0.058)
    20   1    -0.617997      C  5   0.841   C  6   0.568   H 12   0.529   H 11   0.029   (other: 0.033)
    21   1    -0.605635      C  6   1.671   H 12   0.201   C  5   0.095   (other: 0.033)
    22   1    -0.589994      C  6   0.998   C  7   0.952   (other: 0.050)
    23   1    -0.568483      C  2   0.983   C  6   0.943   (other: 0.074)
    24   1    -0.488193      O  1   1.955   (other: 0.045)
    25   1    -0.471616      C  4   1.003   C  5   0.963   (other: 0.034)

 Localizing core orbitals

 CPU Time for LMOs:                 26.69 sec. Elapsed time:    28.25 sec. Memory usage:     0.28 MW (max).
 CPU Time for PAOs:                  0.00 sec. Elapsed time:     0.00 sec. Memory usage:     0.36 MW (max).

 Distance criteria for pair classes:       RCLOSE= 0.0  RWEAK= 0.0  RDIST= 0.0  RVDIST=-1.0
 Connectivity criteria for pair classes:   ICLOSE=   0  IWEAK=   0  IDIST=   0  IVDIST=  -1

 Augmenting orbital domains by 2 shell(s) of neighboring atoms.  Minimum radius:     5.00
 Augmenting RI domains by 3 shell(s) of neighboring atoms.  Minimum radius:          7.00
 Augmenting DF domains by 2 shell(s) of neighboring atoms.  Minimum radius:          5.00

 Generating LMO domains. Method=COEFF  Threshold=1.00D-06

 Fitting truncated LMOs to exact LMOs

 Minimum LMO domain size:                264
 Maximum LMO domain size:                264
 Average LMO domain size:              264.0   (sparsity   0.00 %)

 CPU time for Fitlmo:                   0.00 sec.

 PAO orbital domain sizes:   168 (min),  264 (max),  225.0 (average)
 DF  orbital domain sizes:   406 (min),  642 (max),  545.4 (average)
 RI  orbital domain sizes:   912 (min), 1004 (max),  986.1 (average)

 CPU Time for Domains:               0.00 sec. Elapsed time:     0.01 sec. Memory usage:     0.14 MW (max).

 Number of residual matrices on current processor:       18
 Number of amplitude matrices on current processor:     171

 Fitting basis MP2FIT loaded

 Threshold for block screening:     1.00D-05
 Threshold for integral screening:  1.00D-10

 CPU time for create_blocked_AO basis:                 0.02 sec, 264 functions, 13 blocks.
 CPU time for create_blocked_DF basis:                 0.05 sec, 642 functions, 26 blocks.
 CPU time for create_blocked_RI basis:                 0.06 sec, 1004 functions, 13 blocks.

 Fitting basis center dimensions: min=   23, max=   72, average= 49.38
 Fitting basis block dimensions:  min=   1, max=  36, average= 24.69

 CPU time for project LMOs:                                    0.00 sec.
 CPU time for project PAOs:                                    0.00 sec.

 Screening PAOs with threshold      1.00D-06

 Minimum PAO vector length:              264
 Maximum PAO vector length:              264
 Average PAO vector length:            264.0  (sparsity  0.00 %)

 CPU time for cut/fit of PAO vectors:                          0.00 sec.

 CPU Time for Block_basis:           0.14 sec. Elapsed time:     0.13 sec. Memory usage:     0.19 MW (max).
 CPU Time for Orbitals(tot):        26.83 sec. Elapsed time:    28.40 sec. Memory usage:     0.19 MW (max).
 CPU Time for PAO integrals:         1.37 sec. Elapsed time:     1.39 sec. Memory usage:     2.08 MW (max).
 CPU Time for PAO integrals:         0.00 sec. Elapsed time:     0.00 sec. Memory usage:     1.12 MW (max).
 CPU Time for PAO amplitudes:        0.28 sec. Elapsed time:     0.28 sec. Memory usage:     2.21 MW (max).

 Generating OSVs using PAO(PERT) amplitudes, throsv= 1.0D-09

 Minimum OSV orbital domain size:         61
 Maximum OSV orbital domain size:        132
 Average OSV orbital domain size:       96.3

 CPU Time for OSV_generate:          0.10 sec. Elapsed time:     0.11 sec. Memory usage:     1.73 MW (max).

 Computing distant pair energies using multipole approximation up to order   3

 CPU time for computing multipole integrals (PAO/LMO):         0.21 sec
 CPU time for transforming integrals to OSV domains:           0.00 sec
 CPU time for distant pair energies:                           0.33 sec

 Distant pairs selected using the multipole order 3,  thrdist=1.0D-06  thrvdist=1.0D-07

 Semi-canonical distant pair energies, multipole-orders 1-3    0.00000000  0.00000000  0.00000000


 CPU Time for osv_mltp:              0.33 sec. Elapsed time:     0.33 sec. Memory usage:     0.59 MW (max).

 Number of strong pairs:                 171
 Number of close pairs:                    0
 Number of weak pairs:                     0
 Number of distant pairs:                  0  (treated by iterative multipole approximation, thrdist= 1.0D-06)
 Number of very distant pairs:             0  (treated by non-iterative multipole approximation, thrvdist= 1.0D-07)
 Total number of pairs in LMP2:          171

 Number of pairs per orbital (min, max, average):

 Strong pairs:              18    18    18.0
 Close pairs:                0     0     0.0
 Weak  pairs:                0     0     0.0
 Distant  pairs:             0     0     0.0
 Very distant pairs:         0     0     0.0

 CPU Time for Distribute_pairs:      0.00 sec. Elapsed time:     0.00 sec. Memory usage:     0.59 MW (max).

 Number of residual matrices on current processor:      171
 Number of amplitude matrices on current processor:     171
 F12 pair list with SKIPF=3, 171 pairs.

 Minimum OSV pair domain size:            61
 Maximum OSV pair domain size:           263
 Average OSV pair domain size:         182.4
 Total number of OSVs:                  1733
 Total number of OSV amplitudes:     5982454

 CPU Time for OSV_pairdom:           1.85 sec. Elapsed time:     1.90 sec. Memory usage:     6.55 MW (max).
 CPU Time for OSV integrals:         3.21 sec. Elapsed time:     3.28 sec. Memory usage:    13.69 MW (max).
 CPU Time for OSV_smatrix:           0.06 sec. Elapsed time:     0.07 sec. Memory usage:    12.43 MW (max).

 nosvmx= 263  nosvt= 1733  lens=         0  lenr=   5880053  lent=   5982454  leng=   5982454  lenw=   5960923  lenosv=     69169

 Generating PNOs using OSV(SC) amplitudes, THRPNO_EN=0.9970,  THRPNO_OCC=1.0D-08,  KEEP_DIAG=T  THRPNO_DIAG=0.0D+00

 Generating PNOs for LCCSD with thresholds: THREN_CC:  0.99000, THRPNO_CC:1.0D-07

                                                PNO-LMP2     PNO_LCCSD
 Minimum PNO domain size:                            44            26
 Maximum PNO domain size:                           110            66
 Average PNO domain size:                          74.7          45.8
 Total number of PNOs:                            12772          7835
 Total number of PNO amplitudes:                 982938
 Local number of PNO amplitudes:                 982938
 Length of local PNO residual:                   982938
 Length of local W-matrix:                      2395130

 Semi-canonical OSV correlation energy:     -1.14265217
 Semi-canonical PNO correlation energies:   -1.14241745   -1.14125596

 Semi-canonical domain correction:          -0.00023472   -0.00139621

 CPU Time for PNO_generate:          1.33 sec. Elapsed time:     1.38 sec. Memory usage:    13.84 MW (max).

 Local length of PNO overlap matrix for PNO-LMP2:   15664838  Number of blocks:    2754  number of pairs   171

 GA space for pno_smat:             15.66 MW (tot),             15.66 MW (min),             15.66 MW (max), using processor specific storage

 CPU Time for READ_OSV_SBUF:         0.00 sec. Elapsed time:     0.01 sec. Memory usage:     5.83 MW (max).
 CPU Time for PNO_SMAT:              0.66 sec. Elapsed time:     0.72 sec. Memory usage:     5.82 MW (max).

 Denominator shift:          0.2000

 ITER.      SQ.NORM     CORR.ENERGY   TOTAL ENERGY   ENERGY CHANGE     VAR    DIIS
   1      0.40584990    -1.17645809  -306.26722181    -1.17645809  0.62D-02   1  1
   2      0.44093323    -1.19647071  -306.28723443    -0.02001262  0.51D-03   2  2
   3      0.46651949    -1.19808877  -306.28885249    -0.00161806  0.32D-04   3  3
   4      0.47017836    -1.19817167  -306.28893539    -0.00008290  0.29D-05   4  4
   5      0.47019574    -1.19818001  -306.28894373    -0.00000834  0.18D-06   5  5
   6      0.47010517    -1.19818049  -306.28894422    -0.00000049  0.11D-07   6  6
   7      0.47010990    -1.19818053  -306.28894425    -0.00000003  0.61D-09   7  7

                                            PNO-LMP2        PNO-LMP2_CORR
  PNO-LMP2 correlation energy          -1.198180526698    -1.198415246089
 !PNO-LMP2 total energy              -306.288944249618  -306.289178969009

 CPU Time for PNO-LMP2:              2.19 sec. Elapsed time:     2.47 sec. Memory usage:     6.99 MW (max).

 Computing the F12/3*A(LOC,FIX) energy correction
 ================================================
 Options for MP2-F12: THRF12=0.0E+00  THRVAL=0.1E-03  N_RI_BATCH=0
 Geminal basis:    OPTFULL  GEM_TYPE=SLATER  BETA=1.0  NGEM=6

 Optimizing Gaussian exponents for each gem_beta

 Geminal optimization for beta= 1.0000
 Weight function:   m=0, omega= 1.4646

 Augmented Hessian optimization of geminal fit. Trust ratio= 0.40000
 Convergence reached after   2 iterations. Final gradient= 8.53D-16, Step= 4.26D-06, Delta= 1.28D-09

 Alpha:                 0.19532     0.81920     2.85917     9.50073    35.69989   197.79328
 Coeff:                 0.27070     0.30552     0.18297     0.10986     0.06810     0.04224

 Screened 171 pairs with threshold 0.0E+00, 171 pairs actually used.

  F12(PNO) correction                  -0.235946543928
  PNO-LMP2-F12(PNO) corr. energy       -1.434127070626
 !PNO-LMP2-F12(PNO) total energy     -306.524890793546

 CPU Time for F12_energy:           79.14 sec. Elapsed time:    81.43 sec. Memory usage:    15.43 MW (max).
  Scaling factor for (T)                1.196920696565

 PNO-LMP2-F12 energy contributions
 =================================
                            OSV-LMP2(SC)     PNO-LMP2     PNO-SCS-LMP2   F12 contrib.  PNO-LMP2-F12  PNO-SCS-LMP2-F12  %(PNO/OSV)  AVDOM(PNO)
 Strong pair energy:        -1.14265217    -1.19818053    -1.16838966    -0.23594654    -1.43412707    -1.42752755       104.86       74.7
 Close pair energy:          0.00000000     0.00000000     0.00000000     0.00000000     0.00000000     0.00000000         0.00        0.0
 Weak pair energy :          0.00000000     0.00000000     0.00000000     0.00000000     0.00000000     0.00000000         0.00        0.0
 Distant pair energy:        0.00000000     0.00000000     0.00000000     0.00000000     0.00000000     0.00000000         0.00        0.0
 Total correl. energy:      -1.14265217    -1.19818053    -1.16838966    -0.23594654    -1.43412707    -1.42752755       104.86       74.7

 GA space for pno_smat:              5.83 MW (tot),              5.83 MW (min),              5.83 MW (max), using processor specific storage

 CPU Time for READ_OSV_SBUF:         0.04 sec. Elapsed time:     0.04 sec. Memory usage:     3.32 MW (max).
 CPU Time for PNO_SMAT:              0.43 sec. Elapsed time:     0.46 sec. Memory usage:     3.31 MW (max).

 Denominator shift:          0.2000

 ITER.      SQ.NORM     CORR.ENERGY   TOTAL ENERGY   ENERGY CHANGE     VAR    DIIS
   1      0.46957659    -1.19575992  -306.28652364    -1.19575992  0.20D-04   1  1
   2      0.46873163    -1.19589496  -306.28665868    -0.00013504  0.33D-06   2  2
   3      0.46828328    -1.19589646  -306.28666018    -0.00000150  0.14D-07   3  3
   4      0.46820451    -1.19589651  -306.28666023    -0.00000005  0.77D-09   4  4

 LMP2 results with LCCSD domains:
 ================================
                                            PNO-LMP2        PNO-LMP2_CORR
  PNO-LMP2 correlation energy          -1.195896509839    -1.198415246089
  PNO-LMP2 total energy              -306.286660232760  -306.289178969009
  F12(PNO) correction                  -0.238185674661
  PNO-LMP2-F12 correlation energy      -1.434082184501
  PNO-LMP2-F12 total energy          -306.524845907421

  PNO-LMP2-F12 domain correction       -0.000044886125

 CPU Time for PNO-LMP2(tot):        91.39 sec. Elapsed time:    94.32 sec. Memory usage:    18.43 MW (max).

 Energy thresholds for pair classes:  THRCLOSE=1.00D-04  THRWEAK= 1.00D-05  THRDISTC=0.00D+00

 Strong and close pairs optimized in LCCSD, close pair residuals are approximated (keepcls=1).

 Number of optimized pairs:         171
 Number of strong pairs:            166
 Number of close pairs:               5
 Number of weak pairs:                0
 Total number of pairs:             171

 Length of pair-specific S-blocks:   128.38 MW,  length of unique S-blocks    30.51 MW

 CPU Time for LCC_opdom:             0.07 sec. Elapsed time:     0.08 sec. Memory usage:     0.49 MW (max).
 CPU Time for LCC_float:             0.01 sec. Elapsed time:     0.01 sec. Memory usage:     0.19 MW (max).

 CPU Time for LCC_opdom:             0.11 sec. Elapsed time:     0.11 sec. Memory usage:     0.49 MW (max).
 CPU Time for LCC_load:              0.00 sec. Elapsed time:     0.01 sec. Memory usage:     2.72 MW (max).

 Estimated GA usage of PNO-LCCSD-F12 integrals:                  0.00 MW
 Maximum GA usage after allocating GAs for CCSD integrals:       0.00 MW

 CPU Time for CCSD integrals:      231.69 sec. Elapsed time:   242.49 sec. Memory usage:    16.18 MW (max).

 GA space for pno_smat:             30.51 MW (tot),             30.51 MW (min),             30.51 MW (max), using node specific storage
 CPU Time for OSV_SMAT_LCC:          0.06 sec. Elapsed time:     0.07 sec. Memory usage:    18.03 MW (max).
 CPU Time for READ_OSV_SBUF:         0.00 sec. Elapsed time:     0.00 sec. Memory usage:    18.03 MW (max).
 CPU Time for PNO_SMAT_LCC:          2.22 sec. Elapsed time:     2.42 sec. Memory usage:    16.46 MW (max).

 Current GA usage:                   0.00 MW.  Maximum GA usage up to this point:            0.00 MW

 Solving PNO-LCCSD equations

 K-Operators in non-linear terms are projected

 Close pairs are approximated (keepcls=1, max_ijkl=0, skip_ijkl=0, maxik=0)

 Weak pairs pairs are treated by CEPA(2)

 Denominator shifts:     0.15 (singles),  0.20 (doubles)

 ITER.      SQ.NORM     CORR.ENERGY   TOTAL ENERGY   ENERGY CHANGE     VAR        VART1     DIIS     TIME
    1     0.47937539    -1.36040208  -306.45116581     0.07368010    0.67D-02    0.11D-01   1  1    17.11
    2     0.44139798    -1.40809849  -306.49886222    -0.04769641    0.12D-02    0.28D-03   2  2    33.56
    3     0.48452648    -1.41418218  -306.50494590    -0.00608369    0.19D-03    0.15D-03   3  3    50.46
    4     0.50009870    -1.41571961  -306.50648334    -0.00153744    0.47D-04    0.17D-04   4  4    66.73
    5     0.50625084    -1.41599855  -306.50676228    -0.00027894    0.96D-05    0.41D-05   5  5    84.46
    6     0.50845620    -1.41612552  -306.50688925    -0.00012697    0.18D-05    0.74D-06   6  6   101.06
    7     0.50945096    -1.41614214  -306.50690587    -0.00001662    0.27D-06    0.17D-06   7  7   118.04
    8     0.50966389    -1.41613806  -306.50690178     0.00000408    0.44D-07    0.38D-07   8  8   134.70
    9     0.50970191    -1.41613751  -306.50690124     0.00000055    0.75D-08    0.98D-08   1  8   151.23

 Convergence reached

  T1 diagnostic   0.01675
  D1 diagnostic   0.04916
   
  Reference energy                   -305.068349752128
  CABS singles correction              -0.022413970792
  New reference energy               -305.090763722920

  Correlation contributions without domain correction:

  PNO-LCCSD-F12 singles energy          0.001111946493
  PNO-LCCSD-F12a strong pair energy    -1.416905238840
  PNO-LCCSD-F12b strong pair energy    -1.386481073060
  PNO-LCCSD-F12 close pair energy      -0.000344220763
  PNO-CEPA(2)-F12 weak pair energy      0.000000000000
  PNO-SCS-LMP2 distant pair energy      0.000000000000

  Results including domain correction:

  PNO-LMP2-F12 correction              -0.000044886125
  PNO-LCCSD-F12a correlation energy    -1.416182399236
  PNO-LCCSD-F12b correlation energy    -1.385758233456

 !PNO-LCCSD-F12a total energy        -306.506946122156
 !PNO-LCCSD-F12b total energy        -306.476521956376

 Maximum stack memory usage in PNO-LCCSD iterations: 18.54 MW
 Maximum GA memory usage up to this point: .00 MW
 Maximum local disk usage in MB: 2394.14 (current)   2394.14 (maximum)   2394.14 (average)
 Maximum local disk usage per node: 2394.14 MB

 CPU Time for PNO_LCCSD(it):       133.61 sec. Elapsed time:   151.26 sec. Memory usage:    16.60 MW (max).

 Selecting triples using THRCLOSE_T_PRE = 0.100E-03, THRWEAK_T_PRE = 0.000E+00, TRIPTYP = 2
 Selected 1122 of 1122 triples

 DF domains for (T) with RDFDOM_T: .0, IDFDOM_T: 0

 Options for (T) corrections
   Post (T0) method -  (T1): F, iterative (T): T
   Iterative (T) - THRCONV_TRIP: 0.100E-05, SKIP_TIJKW: F, THRFINT_EN: 0.100E-03
   Triple-specific virtuals - TNO
   PNO thresholds - (T0): 0.100E-08, post (T0): 0.100E-06
   LMO domains - MODOM_T0: 2
   Technical settings - TITER_DYNAMIC: F, USE_SOSV: F


 Triple PAO domain sizes: 264 (maximum), 258.9 (average) 259.2 (average, cubed)
 Triple OSV domain sizes: 384 (maximum), 262.6 (average) 273.2 (average, cubed)
 Triple PNO domain sizes: 138 (maximum), 100.4 (average) 103.0 (average, cubed)
 Triple PNO (iterations) domain sizes: 79 (maximum), 54.6 (average) 56.1 (average, cubed)

 Estimated GA usage of (T) amplitudes 214.06 MW


                                         Large domain       Small domain       Domain corr.
  Triples [T0] contribution            -0.073612164662    -0.072201824539    -0.001410340123
  Triples [T0*] contribution           -0.088107923403    -0.086419858120    -0.001688065283
  Triples (T0) contribution            -0.070509637362    -0.069116695695    -0.001392941667
  Triples (T0*) contribution           -0.084394444266    -0.082727203556    -0.001667240711

  LCCSD(T0)-F12a corr. energy          -1.486692036599
  LCCSD(T0)-F12a total energy        -306.577455759519

  LCCSD(T0)-F12b corr. energy          -1.456267870818
  LCCSD(T0)-F12b total energy        -306.547031593739


 Screening triples with THRTRIP_IT = 0.100E-06
 1122 out of 1122 ( 100.00%) triples survived for the iterations

 ITER.   [T] ENERGY    ENERGY CHANGE    TIME
    0    -0.07220182     0.00000000     0.00
    1    -0.07554306    -0.00334123   113.82
    2    -0.07625232    -0.00070926   226.24
    3    -0.07631641    -0.00006409   340.06
    4    -0.07633792    -0.00002151   454.20
    5    -0.07633962    -0.00000171   566.77
    6    -0.07634074    -0.00000112   680.43
    7    -0.07634076    -0.00000001   790.15

 Convergence reached


                                         Small domain        Corrected
  Triples [T] contribution             -0.076340757080    -0.077751097203
  Triples [T*] contribution            -0.091373832141    -0.093061897423
  Triples (T) contribution             -0.072960802803    -0.074353744470
  Triples (T*) contribution            -0.087328294913    -0.088995535623

  LCCSD(T)-F12a corr. energy           -1.490536143706
 !LCCSD(T)-F12a total energy         -306.581299866626

  LCCSD(T)-F12b corr. energy           -1.460111977926
 !LCCSD(T)-F12b total energy         -306.550875700846


 GA_Put processed 1735.45 MW globally, average elapsed time per process: 6.04 sec
 GA_Get processed 109972.58 MW globally, average elapsed time per process: 175.02 sec

 REMARK: Memory usage printed may not be correct.
 CPU Time for LCCSD(T)(tot):      1686.43 sec. Elapsed time:  1790.92 sec. Memory usage:    18.43 MW (max).

 Direct file usage                 298.13 MB (local),          298.13 MB (max),            298.13 MB (tot)

 Max. memory usage (overall):       18.43 MW (local),           18.43 MW (max),             18.43 MW (tot)
 Max. GA usage (overall):            0.00 MW (local),            0.00 MW (max),              0.00 MW (tot)
 Max. memory+GA usage:              18.43 MW (local),           18.43 MW (max),             18.43 MW (tot)


 **********************************************************************************************************************************
 DATASETS  * FILE   NREC   LENGTH (MB)   RECORD NAMES
              1      19       32.81       500      610      700      900      950      970     1000      129      960     1100   
                                          VAR    BASINP    GEOM    SYMINP    ZMAT    AOBASIS   BASIS     P2S    ABASIS      S 
                                         1400     1410     1200     1210     1080     1600     1650     1700      960(1)
                                           T        V       H0       H01     AOSYM     SMH    MOLCAS    OPER    ABASIS    

              2       5        5.79       700     1000      520     2100     7360   
                                         GEOM     BASIS   MCVARS     RHF    F12ABS    

 PROGRAMS   *        TOTAL  LCCSD(T)     DF-HF       INT
 CPU TIMES  *      1831.07   1804.71     25.80      0.43
 REAL TIME  *      1942.56 SEC
 DISK USED  *       907.90 MB
 **********************************************************************************************************************************

 PNO-LCCSD(T)-F12/cc-pVDZ-F12 energy=   -306.550875700846

    LCCSD(T)-F12           DF-HF
   -306.58129987   -305.06834975
 **********************************************************************************************************************************
 Molpro calculation terminated
