
 Primary working directories    : /var/tmp/pbs.368484.bp1/molpro.LfONVrJcbO
 Secondary working directories  : /var/tmp/pbs.368484.bp1/molpro.LfONVrJcbO
 Wavefunction directory         : /home/lb17101/molpro_test/inp/lowmem/
 Main file repository           : /home/lb17101/molpro_test/inp/lowmem/

 id        : uob

 Nodes                         nprocs
 bp1-01-03-04.data.bp.acrc.priv    1

 Using customized tuning parameters: mindgm=1; mindgv=20; mindgc=4; mindgr=1; noblas=0; minvec=7
 default implementation of scratch files=df  


 Variables initialized (934), CPU time= 0.01 sec
 geomtyp=xyz
 nosym
 noorient
 geometry={
  C       2.250984361175       0.102412312637      -0.114950704608
  C       0.774119235155      -0.193081904136       0.001928249385
  C       0.098792825426      -1.328728757009       0.156502551750
  N      -1.277175395197      -0.784508053774       0.555362059032
  C      -1.065371907431       0.524149272361       0.164703442700
  O      -2.938095716150       1.543201186201       0.275719853352
  N      -0.782160471462       1.625713166625      -0.146928892625
  H       2.548998212588       1.064452536768       0.409887636166
  H       2.336842082373       0.368475195192      -1.168249625384
  H       3.002214616545      -0.745919733798       0.198795372472
  H       0.400820266582      -2.401448218991       0.207213679609
  H      -2.172389821774      -1.262824324335       0.099631279159
  H      -3.104060393216       1.379661324724      -0.749168520052
 }
 basis=vtz-f12
 df-hf
 pno-lccsd(t)-f12,cabs_singles=1,scale_trip=1,domopt=tight
 Commands  initialized (763), CPU time= 0.01 sec, 617 directives.
 Default parameters read. Elapsed time= 0.07 sec

 Checking input...
 Passed
1


                                         ***  PROGRAM SYSTEM MOLPRO  ***
                                       Copyright, TTI GmbH Stuttgart, 2015
                                    Version 2019.2 linked Oct 25 2019 22:50:27


 **********************************************************************************************************************************
 LABEL *                                                                                 
  64 bit serial version                                                                  DATE: 23-Sep-20          TIME: 03:24:48  
 **********************************************************************************************************************************

 SHA1:             8dbd9ae1082e4ce945b0f27595c9eb2d4aa09004
 **********************************************************************************************************************************
 SETTING GEOMTYP        =    XYZ

 Variable memory set to 1024000000 words,  buffer space 

 ZSYMEL=NOSYM

 SETTING BASIS          =    VTZ-F12


 Recomputing integrals since basis changed


 Using spherical harmonics

 Library entry C      S cc-pVTZ-F12          selected for orbital group  1
 Library entry C      P cc-pVTZ-F12          selected for orbital group  1
 Library entry C      D cc-pVTZ-F12          selected for orbital group  1
 Library entry C      F cc-pVTZ-F12          selected for orbital group  1
 Library entry N      S cc-pVTZ-F12          selected for orbital group  2
 Library entry N      P cc-pVTZ-F12          selected for orbital group  2
 Library entry N      D cc-pVTZ-F12          selected for orbital group  2
 Library entry N      F cc-pVTZ-F12          selected for orbital group  2
 Library entry O      S cc-pVTZ-F12          selected for orbital group  4
 Library entry O      P cc-pVTZ-F12          selected for orbital group  4
 Library entry O      D cc-pVTZ-F12          selected for orbital group  4
 Library entry O      F cc-pVTZ-F12          selected for orbital group  4
 Library entry H      S cc-pVTZ-F12          selected for orbital group  6
 Library entry H      P cc-pVTZ-F12          selected for orbital group  6
 Library entry H      D cc-pVTZ-F12          selected for orbital group  6


 PROGRAM * SEWARD (Integral evaluation for generally contracted gaussian basis sets)     Author: Roland Lindh, 1990

 Geometry written to block  1 of record 700


 Point group  C1  



 ATOMIC COORDINATES

 NR  ATOM    CHARGE       X              Y              Z

   1  C       6.00    4.253743953    0.193531223   -0.217225350
   2  C       6.00    1.462873342   -0.364871918    0.003643863
   3  C       6.00    0.186691383   -2.510933445    0.295746961
   4  N       7.00   -2.413511710   -1.482505364    1.049482192
   5  C       6.00   -2.013261126    0.990498573    0.311244398
   6  O       8.00   -5.552196231    2.916227597    0.521035010
   7  N       7.00   -1.478069077    3.072152642   -0.277655367
   8  H       1.00    4.816908514    2.011523767    0.774575374
   9  H       1.00    4.415991532    0.696317203   -2.207671837
  10  H       1.00    5.673363392   -1.409584008    0.375668809
  11  H       1.00    0.757440529   -4.538079436    0.391577104
  12  H       1.00   -4.105221799   -2.386392116    0.188275831
  13  H       1.00   -5.865824017    2.607182048   -1.415723324

 Bond lengths in Bohr (Angstrom)

  1- 2  2.854742728   1- 8  2.146140697   1- 9  2.059367679   1-10  2.221895874   2- 3  2.513870459
       ( 1.510664795)       ( 1.135688748)       ( 1.089770445)       ( 1.175776662)       ( 1.330282958)

  2- 5  3.743682425   3- 4  2.896003667   3-11  2.108141095   4- 5  2.611693712   4-12  2.102515323
       ( 1.981071424)       ( 1.532499143)       ( 1.115580225)       ( 1.382048794)       ( 1.112603194)

  5- 7  2.228568403   6-13  1.986178336
       ( 1.179307612)       ( 1.051040312)

 Bond angles

  1-2-3  132.24281416   1-2-5  147.49004832   2-1-8  112.73559864   2-1-9  101.51114450

  2- 1-10  117.57124005   2- 3- 4  100.53781114   2- 3-11  133.52971231   2- 5- 4   79.78803456

  2- 5- 7   95.36355499   3- 2- 5   80.10447976   3- 4- 5   97.18612895   3- 4-12  117.59072171

  4- 3-11  124.94064288   4- 5- 7  174.85610941   5- 4-12  114.49444450   8- 1- 9  102.66067244

  8- 1-10  108.67584808   9- 1-10  112.56471046

 NUCLEAR CHARGE:                   52
 NUMBER OF PRIMITIVE AOS:         630
 NUMBER OF SYMMETRY AOS:          561
 NUMBER OF CONTRACTIONS:          479   (  479A   )
 NUMBER OF CORE ORBITALS:           7   (    7A   )
 NUMBER OF VALENCE ORBITALS:       34   (   34A   )


 NUCLEAR REPULSION ENERGY  268.16451964


 Eigenvalues of metric

         1 0.250E-04 0.361E-04 0.457E-04 0.551E-04 0.718E-04 0.111E-03 0.125E-03 0.138E-03


 OPERATOR DM      FOR CENTER  0  COORDINATES:    0.000000    0.000000    0.000000


 **********************************************************************************************************************************
 DATASETS  * FILE   NREC   LENGTH (MB)   RECORD NAMES
              1      18       38.60       500      610      700      900      950      970     1000      129      960     1100   
                                          VAR    BASINP    GEOM    SYMINP    ZMAT    AOBASIS   BASIS     P2S    ABASIS      S 
                                         1400     1410     1200     1210     1080     1600     1650     1700   
                                           T        V       H0       H01     AOSYM     SMH    MOLCAS    OPER   

 PROGRAMS   *        TOTAL       INT
 CPU TIMES  *         0.65      0.53
 REAL TIME  *         1.69 SEC
 DISK USED  *        39.21 MB
 **********************************************************************************************************************************


 PROGRAM * RHF-SCF (CLOSED SHELL)       Authors: W. Meyer, H.-J. Werner


 NUMBER OF ELECTRONS:      26+   26-    SPACE SYMMETRY=1    SPIN SYMMETRY: Singlet 
 CONVERGENCE THRESHOLDS:    1.00E-05 (Density)    1.00E-07 (Energy)
 INTEGRAL THRESHOLDS:       1.00E-11 (Initial)    1.00E-11 (Final)
 MAX. NUMBER OF ITERATIONS:       60
 INTERPOLATION TYPE:            DIIS
 INTERPOLATION STEPS:              2 (START)      1 (STEP)
 LEVEL SHIFTS:                  0.00 (CLOSED)  0.00 (OPEN) 




 Basis set AUG-CC-PVTZ/JKFIT generated.  Number of basis functions:   1004 

 Orbital guess generated from atomic densities. Full valence occupancy:   41
 Using density fitting in orbital guess

 Coulomb and exchange fitting
 Thresholds for fitting:       THRAO_COUL= 1.0D-14    THRAO_EXCH= 1.0D-12    THRMO= 1.0D-11    THRPROD= 1.0D-11    THRASM= 1.0D-11
                               THR2HLF=    1.0D-11

 Molecular orbital dump at record        2100.2

 Initial occupancy:  26

 ITERATION   DDIFF            GRAD            ENERGY        2-EL.EN.            DIPOLE MOMENTS         DIIS   CPU(IT)  CPU(TOT)  ORB.
    1      0.000D+00      0.000D+00      -338.26630290    770.731220    4.08336   -4.35415   -1.33166    0      4.4      9.6     start
    2      0.000D+00      0.418D-02      -338.04471521    770.047199   -1.82264    0.02238   -0.16107    1      4.6     14.2     diag
    3      0.649D-02      0.654D-02      -338.48434819    769.468751    2.86767   -2.40254   -0.85380    2      4.5     18.7     diag
    4      0.417D-02      0.891D-03      -338.49535036    769.686440    2.15668   -2.48316   -0.77339    3      4.5     23.2     diag
    5      0.900D-03      0.455D-03      -338.49903940    769.758492    2.26932   -2.30804   -0.82980    4      4.6     27.9     diag
    6      0.405D-03      0.148D-03      -338.49990194    769.589920    2.23812   -2.29974   -0.80142    5      4.6     32.4     diag
    7      0.215D-03      0.730D-04      -338.50021560    769.656647    2.19460   -2.26058   -0.81307    6      4.6     37.0     diag
    8      0.144D-03      0.474D-04      -338.50032504    769.628503    2.17070   -2.24370   -0.81089    7      4.7     41.7     diag
    9      0.950D-04      0.237D-04      -338.50035401    769.625903    2.14977   -2.23027   -0.80967    8      4.5     46.2     diag
   10      0.487D-04      0.139D-04      -338.50036421    769.631139    2.13672   -2.22050   -0.81087    9      4.5     50.8     orth
   11      0.330D-04      0.730D-05      -338.50036699    769.633735    2.12879   -2.21511   -0.81150    9      4.5     55.2     diag
   12      0.188D-04      0.306D-05      -338.50036759    769.632882    2.12492   -2.21232   -0.81155    9      4.5     59.7     diag
   13      0.851D-05      0.159D-05      -338.50036774    769.634571    2.12231   -2.21058   -0.81178    9      4.6     64.3     diag
   14      0.603D-05      0.473D-06      -338.50036775    769.634252    2.12204   -2.21044   -0.81176    9      4.5     68.8     diag
   15      0.113D-05      0.220D-06      -338.50036775    769.634348    2.12209   -2.21048   -0.81176    0      4.5     73.3     orth

 Final occupancy:  26

 !RHF STATE  1.1 Energy              -338.500367747371
 Nuclear energy                       268.16451964
 One-electron energy                 -991.48206132
 Two-electron energy                  384.81717392
 Virial quotient                       -1.00347997
 !RHF STATE  1.1 Dipole moment          2.12208852    -2.21047659    -0.81175666
 Dipole moment /Debye                   5.39345774    -5.61810310    -2.06314450

 Orbital energies:

         1.1          2.1          3.1          4.1          5.1          6.1          7.1          8.1          9.1         10.1
    -20.490358   -15.680701   -15.659231   -11.408194   -11.326536   -11.323804   -11.283280    -1.339790    -1.257099    -1.169668

        11.1         12.1         13.1         14.1         15.1         16.1         17.1         18.1         19.1         20.1
     -1.078814    -0.966413    -0.827369    -0.719855    -0.690910    -0.647632    -0.634987    -0.624289    -0.591024    -0.567107

        21.1         22.1         23.1         24.1         25.1         26.1         27.1         28.1
     -0.526692    -0.520059    -0.478960    -0.402576    -0.387861    -0.320648     0.003056     0.031036


 HOMO     26.1    -0.320648 =      -8.7253eV
 LUMO     27.1     0.003056 =       0.0832eV
 LUMO-HOMO         0.323704 =       8.8084eV


 **********************************************************************************************************************************
 DATASETS  * FILE   NREC   LENGTH (MB)   RECORD NAMES
              1      18       38.60       500      610      700      900      950      970     1000      129      960     1100   
                                          VAR    BASINP    GEOM    SYMINP    ZMAT    AOBASIS   BASIS     P2S    ABASIS      S 
                                         1400     1410     1200     1210     1080     1600     1650     1700   
                                           T        V       H0       H01     AOSYM     SMH    MOLCAS    OPER   

              2       4        8.55       700     1000      520     2100   
                                         GEOM     BASIS   MCVARS     RHF  

 PROGRAMS   *        TOTAL     DF-HF       INT
 CPU TIMES  *        74.06     73.40      0.53
 REAL TIME  *        80.36 SEC
 DISK USED  *       207.02 MB
 **********************************************************************************************************************************


 World communicator: rank 0, size 1
 Shared-memory communicator: rank 0, size 1
 Current node: rank 0, 1 node(s) in total

 Restoring occupations from record    2100.2

 Program * PNO-LCCSD(T)-F12   Authors:   H.-J. Werner (2012), M. Schwilk, Q. Ma (2016)

 Number of core orbitals:           7
 Number of closed-shell orbitals:  19
 Number of open-shell orbitals:     0
 Number of valence orbitals:       19
 Number of external orbitals:     453

 Basis set CC-PVTZ-F12/OPTRI generated.  Number of basis functions:   771 

 Generating union of orbital basis set VTZ-F12 and corresponding OPTRI basis

 Basis set CC-PVTZ-F12_CABS generated.   Number of basis functions:   1250 
 Basis set AUG-CC-PVTZ/MP2FIT generated. Number of basis functions:   1018 

 Calculation of CABS singles correction
 ======================================


 Molecular orbitals read from record     2100.2  Type=RHF/CANONICAL (state 1.1)
 Fock matrix read from record            2100.2  Type=RHF/TOTAL (state 1.1)
 Some Fock operators are calculated for F12-singles only.

 AO(A)-basis ORBITAL           loaded. Number of functions:     479
 RI(R)-basis CC-PVTZ-F12/OPTRI loaded. Number of functions:     771
 DF-basis AUG-CC-PVTZ/JKFIT    loaded. Number of functions:    1004

 Screening thresholds:   THRAO=  1.00D-10  THRMO=  1.00D-09  THRPROD=  1.00D-09
                         THRSW=  1.00D-05  THROV=  1.00D-12  THRAOF12= 1.00D-08

 CPU time for Fock operators                     24.30 sec

 Construction of ABS:
 Smallest eigenvalue of S          4.99E-05  (threshold= 1.00E-08)
 Ratio eigmin/eigmax               5.25E-06  (threshold= 1.00E-09)
 Smallest eigenvalue of S kept     4.99E-05  (threshold= 4.99E-05, 0 functions deleted, 771 kept)

 Construction of CABS:
 Smallest eigenvalue of S          2.04E-07  (threshold= 1.00E-08)
 Ratio eigmin/eigmax               2.04E-07  (threshold= 1.00E-09)
 Smallest eigenvalue of S kept     2.04E-07  (threshold= 2.04E-07, 0 functions deleted, 771 kept)

 CPU time for CABS singles                        0.76 sec

 CABS-singles contribution of  -0.00253625 patched into reference energy.
 New reference energy        -338.50290400

 Leaving lmp2-f12 by request (CABS_SINGLES < 0) after calculation of singles.

 USING TIGHT DOMAIN OPTIONS: THRLMO=0.20  IEXT=3  THROSV=  1.0D-10
                             THRPNO_LMP2=1.0D-08  THREN_LMP2=0.997
                             THRPNO_CC=  1.0D-08  THREN_CC=  0.997
                             THRTNO_T0=  1.0D-10  THRTNO_T=1.0D-07

 iclose= 0  iweak= 0  rclose= 0.00  rweak= 0.00  thrclos= 1.0D-04  thrweak= 1.0D-05  open-shell=F

 Use_GA=T  Use_PAO=T  PAO_pairdom=F  PAO_trans=T  LOCFIT= 1  LOCRI=T  EIJDIP=2  PROJECT_K=T

 Threshold for small PAO norm:    0.00D+00
 Threshold for redundancy check:  1.00D-06

 OPTIONS FOR CCSD:   method= LCCSD     icepa= -1  icepac=-1  icepaw= 2  keepcls=1  maxcls=1  maxclt=2  maxwkt=2  do_mp2w=F
                     project_k=T    project_j=ALL    idexp4_close=0

 OPTIONS FOR SINGLES IN CCSD:   isexp4=  1  isexp5= 0  isexp6= 0  project_je=T  project_s=WEAK
                                includeGE= 1  includeKEKJ= 1  includeJEKJ= 0  includeJ= 2  undress=T  project_ke=2

 Molecular orbitals read from record     2100.2  Type=RHF/CANONICAL (state 1.1)
 Orbital energies read from record       2100.2  Type=RHF/CANONICAL (state 1.1)
 Fock matrix read from record            2100.2  Type=RHF/TOTAL (state 1.1)

  Reference energy                   -338.500367747371
  CABS singles correction              -0.002536253476
  New reference energy               -338.502904000847


 Computing intrinsic bond orbitals
 =================================

 Basis set MINAO-AUTO-PP generated.      Number of basis functions:   41 

 Polarized AO type:                A = (O Ot + (1-O)(1-Ot)) P12
 Orthogonalization method:         Symmetric (Loewdin)
 Localization functional:          L = sum[A,i] <i|n_A|i>^4 -> max

 Localization group 1:  19 orbitals, occupancy  2.000
 Iterative localization: IB/PM,    8 iter; Final gradient 0.24E-08

 Summary of localized orbital composition:   [THRPRINT= 0.020]

   ORB  GRP  ORB.ENERGY      CENTERS/CHARGES
     8   1    -1.221608      N  7   1.110   C  5   0.886
     9   1    -1.001490      N  4   1.036   C  5   0.954
    10   1    -0.944171      C  2   0.995   C  3   0.992
    11   1    -0.856578      O  6   1.999
    12   1    -0.827508      N  4   1.176   C  3   0.784   (other: 0.040)
    13   1    -0.823689      N  4   1.278   H 12   0.689   C  5   0.024
    14   1    -0.805971      C  2   1.068   C  1   0.928
    15   1    -0.786329      O  6   1.287   H 13   0.712
    16   1    -0.758954      C  3   1.188   H 11   0.798
    17   1    -0.700058      N  7   1.987
    18   1    -0.689886      C  1   1.144   H  9   0.834   (other: 0.022)
    19   1    -0.674036      C  1   1.124   H 10   0.851   (other: 0.025)
    20   1    -0.672699      C  1   1.143   H  8   0.840
    21   1    -0.582706      C  2   0.755   C  5   0.724   N  7   0.476   (other: 0.046)
    22   1    -0.582391      N  4   1.842   C  5   0.090   N  7   0.029   (other: 0.039)
    23   1    -0.557540      N  7   1.283   C  5   0.703
    24   1    -0.445186      C  3   1.031   C  2   0.950
    25   1    -0.420462      O  6   1.943   N  7   0.028   C  5   0.023
    26   1    -0.400492      O  6   1.623   C  2   0.166   N  7   0.098   C  5   0.077   (other: 0.036)

 Localizing core orbitals

 CPU Time for LMOs:                 25.60 sec. Elapsed time:    26.77 sec. Memory usage:     0.92 MW (max).
 CPU Time for PAOs:                  0.01 sec. Elapsed time:     0.01 sec. Memory usage:     1.16 MW (max).

 Distance criteria for pair classes:       RCLOSE= 0.0  RWEAK= 0.0  RDIST= 0.0  RVDIST=-1.0
 Connectivity criteria for pair classes:   ICLOSE=   0  IWEAK=   0  IDIST=   0  IVDIST=  -1

 Augmenting orbital domains by 3 shell(s) of neighboring atoms.  Minimum radius:     7.00
 Augmenting RI domains by 4 shell(s) of neighboring atoms.  Minimum radius:          9.00
 Augmenting DF domains by 3 shell(s) of neighboring atoms.  Minimum radius:          7.00

 Generating LMO domains. Method=COEFF  Threshold=1.00D-06

 Fitting truncated LMOs to exact LMOs

 Minimum LMO domain size:                461
 Maximum LMO domain size:                479
 Average LMO domain size:              477.1   (sparsity   0.40 %)

 CPU time for Fitlmo:                   0.00 sec.

 PAO orbital domain sizes:   248 (min),  479 (max),  390.9 (average)
 DF  orbital domain sizes:   516 (min), 1018 (max),  822.4 (average)
 RI  orbital domain sizes:   886 (min), 1250 (max), 1143.8 (average)

 CPU Time for Domains:               0.01 sec. Elapsed time:     0.01 sec. Memory usage:     0.46 MW (max).

 Number of residual matrices on current processor:       19
 Number of amplitude matrices on current processor:     190

 Fitting basis AUG-CC-PVTZ-MP2F loaded

 Threshold for block screening:     1.00D-05
 Threshold for integral screening:  1.00D-10

 CPU time for create_blocked_AO basis:                 0.01 sec, 479 functions, 20 blocks.
 CPU time for create_blocked_DF basis:                 0.05 sec, 1018 functions, 34 blocks.
 CPU time for create_blocked_RI basis:                 0.05 sec, 1250 functions, 13 blocks.

 Fitting basis center dimensions: min=   46, max=  106, average= 78.31
 Fitting basis block dimensions:  min=   1, max=  36, average= 29.94

 CPU time for project LMOs:                                    0.00 sec.
 CPU time for project PAOs:                                    0.00 sec.

 Screening PAOs with threshold      1.00D-06

 Minimum PAO vector length:              479
 Maximum PAO vector length:              479
 Average PAO vector length:            479.0  (sparsity  0.00 %)

 CPU time for cut/fit of PAO vectors:                          0.00 sec.

 CPU Time for Block_basis:           0.12 sec. Elapsed time:     0.13 sec. Memory usage:     0.53 MW (max).
 CPU Time for Orbitals(tot):        25.74 sec. Elapsed time:    26.92 sec. Memory usage:     0.53 MW (max).
 CPU Time for PAO integrals:         5.17 sec. Elapsed time:     5.26 sec. Memory usage:     6.09 MW (max).
 CPU Time for PAO integrals:         0.00 sec. Elapsed time:     0.00 sec. Memory usage:     3.55 MW (max).
 CPU Time for PAO amplitudes:        1.30 sec. Elapsed time:     1.30 sec. Memory usage:     7.14 MW (max).

 Generating OSVs using PAO(PERT) amplitudes, throsv= 1.0D-10

 Minimum OSV orbital domain size:         95
 Maximum OSV orbital domain size:        297
 Average OSV orbital domain size:      170.5

 CPU Time for OSV_generate:          0.43 sec. Elapsed time:     0.45 sec. Memory usage:     5.54 MW (max).

 Computing distant pair energies using multipole approximation up to order   3

 CPU time for computing multipole integrals (PAO/LMO):         0.55 sec
 CPU time for transforming integrals to OSV domains:           0.00 sec
 CPU time for distant pair energies:                           0.96 sec

 Distant pairs selected using the multipole order 3,  thrdist=1.0D-06  thrvdist=1.0D-07

 Semi-canonical distant pair energies, multipole-orders 1-3    0.00000000  0.00000000  0.00000000


 CPU Time for osv_mltp:              0.94 sec. Elapsed time:     0.97 sec. Memory usage:     1.83 MW (max).

 Number of strong pairs:                 190
 Number of close pairs:                    0
 Number of weak pairs:                     0
 Number of distant pairs:                  0  (treated by iterative multipole approximation, thrdist= 1.0D-06)
 Number of very distant pairs:             0  (treated by non-iterative multipole approximation, thrvdist= 1.0D-07)
 Total number of pairs in LMP2:          190

 Number of pairs per orbital (min, max, average):

 Strong pairs:              19    19    19.0
 Close pairs:                0     0     0.0
 Weak  pairs:                0     0     0.0
 Distant  pairs:             0     0     0.0
 Very distant pairs:         0     0     0.0

 CPU Time for Distribute_pairs:      0.00 sec. Elapsed time:     0.00 sec. Memory usage:     1.83 MW (max).

 Number of residual matrices on current processor:      190
 Number of amplitude matrices on current processor:     190
 F12 pair list with SKIPF=3, 190 pairs.

 Minimum OSV pair domain size:            95
 Maximum OSV pair domain size:           536
 Average OSV pair domain size:         323.9
 Total number of OSVs:                  3239
 Total number of OSV amplitudes:    21228319

 CPU Time for OSV_pairdom:           8.74 sec. Elapsed time:     8.84 sec. Memory usage:    22.44 MW (max).
 CPU Time for OSV integrals:        13.87 sec. Elapsed time:    14.29 sec. Memory usage:    45.98 MW (max).
 CPU Time for OSV_smatrix:           0.42 sec. Elapsed time:     0.46 sec. Memory usage:    42.39 MW (max).

 nosvmx= 536  nosvt= 3239  lens=         0  lenr=  19952669  lent=  21228319  leng=  21228319  lenw=  20615981  lenosv=    287296

 Generating PNOs using OSV(SC) amplitudes, THRPNO_EN=0.9970,  THRPNO_OCC=1.0D-08,  KEEP_DIAG=T  THRPNO_DIAG=0.0D+00

 Generating PNOs for LCCSD with thresholds: THREN_CC:  0.99700, THRPNO_CC:1.0D-08

                                                PNO-LMP2     PNO_LCCSD
 Minimum PNO domain size:                            61            61
 Maximum PNO domain size:                           166           166
 Average PNO domain size:                          99.5          99.5
 Total number of PNOs:                            18911         18911
 Total number of PNO amplitudes:                1938627
 Local number of PNO amplitudes:                1938627
 Length of local PNO residual:                  1938627
 Length of local W-matrix:                      6295499

 Semi-canonical OSV correlation energy:     -1.36436203
 Semi-canonical PNO correlation energies:   -1.36399824   -1.36399824

 Semi-canonical domain correction:          -0.00036380   -0.00036380

 CPU Time for PNO_generate:          5.86 sec. Elapsed time:     6.15 sec. Memory usage:    46.08 MW (max).

 Local length of PNO overlap matrix for PNO-LMP2:   32652667  Number of blocks:    3249  number of pairs   190

 GA space for pno_smat:             32.65 MW (tot),             32.65 MW (min),             32.65 MW (max), using processor specific storage

 CPU Time for READ_OSV_SBUF:         0.01 sec. Elapsed time:     0.01 sec. Memory usage:    13.04 MW (max).
 CPU Time for PNO_SMAT:              3.20 sec. Elapsed time:     3.40 sec. Memory usage:    13.00 MW (max).

 Denominator shift:          0.2000

 ITER.      SQ.NORM     CORR.ENERGY   TOTAL ENERGY   ENERGY CHANGE     VAR    DIIS
   1      0.44605806    -1.39050905  -339.89341305    -1.39050905  0.44D-02   1  1
   2      0.47299693    -1.40473477  -339.90763877    -0.01422572  0.33D-03   2  2
   3      0.49123775    -1.40560546  -339.90850946    -0.00087070  0.25D-04   3  3
   4      0.49415842    -1.40566238  -339.90856638    -0.00005692  0.20D-05   4  4
   5      0.49422943    -1.40566725  -339.90857126    -0.00000487  0.77D-07   5  5
   6      0.49417947    -1.40566746  -339.90857146    -0.00000020  0.35D-08   6  6

                                            PNO-LMP2        PNO-LMP2_CORR
  PNO-LMP2 correlation energy          -1.405667458626    -1.406031255321
 !PNO-LMP2 total energy              -339.908571459473  -339.908935256167

 CPU Time for PNO-LMP2:              4.81 sec. Elapsed time:     5.28 sec. Memory usage:    15.71 MW (max).

 Computing the F12/3*A(LOC,FIX) energy correction
 ================================================
 Options for MP2-F12: THRF12=0.0E+00  THRVAL=0.1E-03  N_RI_BATCH=0
 Geminal basis:    OPTFULL  GEM_TYPE=SLATER  BETA=1.0  NGEM=6

 Optimizing Gaussian exponents for each gem_beta

 Geminal optimization for beta= 1.0000
 Weight function:   m=0, omega= 1.4646

 Augmented Hessian optimization of geminal fit. Trust ratio= 0.40000
 Convergence reached after   2 iterations. Final gradient= 8.53D-16, Step= 4.26D-06, Delta= 1.28D-09

 Alpha:                 0.19532     0.81920     2.85917     9.50073    35.69989   197.79328
 Coeff:                 0.27070     0.30552     0.18297     0.10986     0.06810     0.04224

 Screened 190 pairs with threshold 0.0E+00, 190 pairs actually used.

  F12(PNO) correction                  -0.114739853257
  PNO-LMP2-F12(PNO) corr. energy       -1.520407311884
 !PNO-LMP2-F12(PNO) total energy     -340.023311312730

 CPU Time for F12_energy:          257.08 sec. Elapsed time:   262.37 sec. Memory usage:    32.73 MW (max).
  Scaling factor for (T)                1.081626598491

 PNO-LMP2-F12 energy contributions
 =================================
                            OSV-LMP2(SC)     PNO-LMP2     PNO-SCS-LMP2   F12 contrib.  PNO-LMP2-F12  PNO-SCS-LMP2-F12  %(PNO/OSV)  AVDOM(PNO)
 Strong pair energy:        -1.36436203    -1.40566746    -1.38142568    -0.11473985    -1.52040731    -1.51230834       103.03       99.5
 Close pair energy:          0.00000000     0.00000000     0.00000000     0.00000000     0.00000000     0.00000000         0.00        0.0
 Weak pair energy :          0.00000000     0.00000000     0.00000000     0.00000000     0.00000000     0.00000000         0.00        0.0
 Distant pair energy:        0.00000000     0.00000000     0.00000000     0.00000000     0.00000000     0.00000000         0.00        0.0
 Total correl. energy:      -1.36436203    -1.40566746    -1.38142568    -0.11473985    -1.52040731    -1.51230834       103.03       99.5

 GA space for pno_smat:             32.65 MW (tot),             32.65 MW (min),             32.65 MW (max), using processor specific storage

 CPU Time for READ_OSV_SBUF:         0.04 sec. Elapsed time:     0.09 sec. Memory usage:    12.03 MW (max).
 CPU Time for PNO_SMAT:              3.13 sec. Elapsed time:     3.27 sec. Memory usage:    11.99 MW (max).

 Denominator shift:          0.2000

 ITER.      SQ.NORM     CORR.ENERGY   TOTAL ENERGY   ENERGY CHANGE     VAR    DIIS
   1      0.49418896    -1.40566747  -339.90857147    -1.40566747  0.43D-09   1  1
   2      0.49418829    -1.40566747  -339.90857147    -0.00000000  0.57D-10   2  2

 LMP2 results with LCCSD domains:
 ================================
                                            PNO-LMP2        PNO-LMP2_CORR
  PNO-LMP2 correlation energy          -1.405667469478    -1.406031255321
  PNO-LMP2 total energy              -339.908571470325  -339.908935256167
  F12(PNO) correction                  -0.114739853257
  PNO-LMP2-F12 correlation energy      -1.520407322736
  PNO-LMP2-F12 total energy          -340.023311323582

  PNO-LMP2-F12 domain correction        0.000000010852

 CPU Time for PNO-LMP2(tot):       306.61 sec. Elapsed time:   313.93 sec. Memory usage:    56.80 MW (max).

 Energy thresholds for pair classes:  THRCLOSE=1.00D-04  THRWEAK= 1.00D-05  THRDISTC=0.00D+00

 Strong and close pairs optimized in LCCSD, close pair residuals are approximated (keepcls=1).

 Number of optimized pairs:         190
 Number of strong pairs:            161
 Number of close pairs:              25
 Number of weak pairs:                4
 Total number of pairs:             190

 Length of pair-specific S-blocks:   660.82 MW,  length of unique S-blocks   177.11 MW

 CPU Time for LCC_opdom:             0.09 sec. Elapsed time:     0.09 sec. Memory usage:     0.82 MW (max).
 CPU Time for LCC_float:             0.01 sec. Elapsed time:     0.01 sec. Memory usage:     0.53 MW (max).

 CPU Time for LCC_opdom:             0.07 sec. Elapsed time:     0.08 sec. Memory usage:     0.82 MW (max).
 CPU Time for LCC_load:              0.04 sec. Elapsed time:     0.04 sec. Memory usage:    10.37 MW (max).

 Estimated GA usage of PNO-LCCSD-F12 integrals:                  0.00 MW
 Maximum GA usage after allocating GAs for CCSD integrals:       0.00 MW

 CPU Time for CCSD integrals:     1687.14 sec. Elapsed time:  1989.19 sec. Memory usage:    82.72 MW (max).

 GA space for pno_smat:            177.11 MW (tot),            177.11 MW (min),            177.11 MW (max), using node specific storage
 CPU Time for OSV_SMAT_LCC:          0.39 sec. Elapsed time:     0.42 sec. Memory usage:    89.20 MW (max).
 CPU Time for READ_OSV_SBUF:         0.00 sec. Elapsed time:     0.00 sec. Memory usage:    89.20 MW (max).
 CPU Time for PNO_SMAT_LCC:         16.12 sec. Elapsed time:    17.55 sec. Memory usage:    83.74 MW (max).

 Current GA usage:                   0.00 MW.  Maximum GA usage up to this point:            0.00 MW

 Solving PNO-LCCSD equations

 K-Operators in non-linear terms are projected

 Close pairs are approximated (keepcls=1, max_ijkl=0, skip_ijkl=0, maxik=0)

 Weak pairs pairs are treated by CEPA(2)

 Denominator shifts:     0.15 (singles),  0.20 (doubles)

 ITER.      SQ.NORM     CORR.ENERGY   TOTAL ENERGY   ENERGY CHANGE     VAR        VART1     DIIS     TIME
    1     0.52782747    -1.41902361  -339.92192761     0.10138371    0.13D-01    0.34D-01   1  1   154.77
    2     0.45727480    -1.48240535  -339.98530935    -0.06338174    0.30D-02    0.10D-02   2  2   303.94
    3     0.50403646    -1.48823845  -339.99114245    -0.00583309    0.44D-03    0.21D-02   3  3   453.77
    4     0.53489588    -1.49163339  -339.99453739    -0.00339494    0.12D-03    0.54D-03   4  4   597.49
    5     0.55623139    -1.49364048  -339.99654448    -0.00200709    0.57D-04    0.16D-03   5  5   742.57
    6     0.56986582    -1.49435387  -339.99725787    -0.00071339    0.12D-04    0.68D-04   6  6   886.58
    7     0.57787603    -1.49482202  -339.99772602    -0.00046815    0.40D-05    0.15D-04   7  7  1031.05
    8     0.58245182    -1.49498986  -339.99789386    -0.00016784    0.11D-05    0.48D-05   8  8  1176.51
    9     0.58398059    -1.49500579  -339.99790979    -0.00001593    0.36D-06    0.18D-05   1  8  1322.47
   10     0.58504319    -1.49499453  -339.99789853     0.00001126    0.15D-06    0.36D-06   2  8  1467.99
   11     0.58552449    -1.49502458  -339.99792858    -0.00003004    0.40D-07    0.13D-06   3  8  1616.44
   12     0.58535279    -1.49499617  -339.99790017     0.00002841    0.11D-07    0.49D-07   4  8  1763.37
   13     0.58556700    -1.49500937  -339.99791337    -0.00001320    0.33D-08    0.19D-07   5  8  1909.50
   14     0.58551769    -1.49500532  -339.99790932     0.00000405    0.15D-08    0.83D-08   6  8  2057.84
   15     0.58556070    -1.49500663  -339.99791063    -0.00000131    0.63D-09    0.39D-08   7  8  2202.29
   16     0.58556578    -1.49500687  -339.99791087    -0.00000024    0.37D-09    0.13D-08   8  8  2349.28

 Convergence reached

  T1 diagnostic   0.03229
  D1 diagnostic   0.17380
   
  Reference energy                   -338.500367747371
  CABS singles correction              -0.002536253476
  New reference energy               -338.502904000847

  Correlation contributions without domain correction:

  PNO-LCCSD-F12 singles energy          0.001855704304
  PNO-LCCSD-F12a strong pair energy    -1.495774198293
  PNO-LCCSD-F12b strong pair energy    -1.473648453063
  PNO-LCCSD-F12 close pair energy      -0.001063323593
  PNO-CEPA(2)-F12 weak pair energy     -0.000025055272
  PNO-SCS-LMP2 distant pair energy      0.000000000000

  Results including domain correction:

  PNO-LMP2-F12 correction               0.000000010852
  PNO-LCCSD-F12a correlation energy    -1.495006862001
  PNO-LCCSD-F12b correlation energy    -1.472881116771

 !PNO-LCCSD-F12a total energy        -339.997910862848
 !PNO-LCCSD-F12b total energy        -339.975785117618

 Maximum stack memory usage in PNO-LCCSD iterations: 99.29 MW
 Maximum GA memory usage up to this point: .00 MW
 Maximum local disk usage in MB: 35393.05 (current)   35393.05 (maximum)   35393.05 (average)
 Maximum local disk usage per node: 35393.05 MB

 CPU Time for PNO_LCCSD(it):      1796.14 sec. Elapsed time:  2349.39 sec. Memory usage:    84.73 MW (max).

 Selecting triples using THRCLOSE_T_PRE = 0.100E-03, THRWEAK_T_PRE = 0.000E+00, TRIPTYP = 2
 Selected 1308 of 1311 triples

 DF domains for (T) with RDFDOM_T: .0, IDFDOM_T: 0

 Options for (T) corrections
   Post (T0) method -  (T1): F, iterative (T): T
   Iterative (T) - THRCONV_TRIP: 0.100E-05, SKIP_TIJKW: F, THRFINT_EN: 0.100E-03
   Triple-specific virtuals - TNO
   PNO thresholds - (T0): 0.100E-09, post (T0): 0.100E-06
   LMO domains - MODOM_T0: 2
   Technical settings - TITER_DYNAMIC: F, USE_SOSV: F


 Triple PAO domain sizes: 479 (maximum), 468.1 (average) 469.9 (average, cubed)
 Triple OSV domain sizes: 757 (maximum), 467.1 (average) 490.1 (average, cubed)
 Triple PNO domain sizes: 298 (maximum), 193.2 (average) 199.2 (average, cubed)
 Triple PNO (iterations) domain sizes: 109 (maximum), 63.0 (average) 67.5 (average, cubed)

 Estimated GA usage of (T) amplitudes 441.25 MW


                                         Large domain       Small domain       Domain corr.
  Triples [T0] contribution            -0.100230389535    -0.098070904176    -0.002159485359
  Triples [T0*] contribution           -0.108411855298    -0.106076098495    -0.002335756803
  Triples (T0) contribution            -0.091059573500    -0.088956662513    -0.002102910986
  Triples (T0*) contribution           -0.098492456744    -0.096217892287    -0.002274564457

  LCCSD(T0)-F12a corr. energy          -1.586066435500
  LCCSD(T0)-F12a total energy        -340.088970436347

  LCCSD(T0)-F12b corr. energy          -1.563940690271
  LCCSD(T0)-F12b total energy        -340.066844691118


 Screening triples with THRTRIP_IT = 0.100E-06
 1281 out of 1308 ( 97.94%) triples survived for the iterations

 ITER.   [T] ENERGY    ENERGY CHANGE    TIME
    0    -0.09806936     0.00000000     0.00
    1    -0.10132987    -0.00326051   274.45
    2    -0.10206701    -0.00073714   549.60
    3    -0.10212197    -0.00005496   826.94
    4    -0.10214499    -0.00002303  1106.05
    5    -0.10214653    -0.00000153  1407.22
    6    -0.10214782    -0.00000129  1707.58
    7    -0.10214784    -0.00000002  2013.99

 Convergence reached


                                         Small domain        Corrected
  Triples [T] contribution             -0.102149388147    -0.104308873506
  Triples [T*] contribution            -0.110487495240    -0.112823252043
  Triples (T) contribution             -0.092459240541    -0.094562151528
  Triples (T*) contribution            -0.100006373846    -0.102280938303

  LCCSD(T)-F12a corr. energy           -1.589569013528
 !LCCSD(T)-F12a total energy         -340.092473014375

  LCCSD(T)-F12b corr. energy           -1.567443268299
 !LCCSD(T)-F12b total energy         -340.070347269146


 GA_Put processed 4154.10 MW globally, average elapsed time per process: 19.44 sec
 GA_Get processed 381866.13 MW globally, average elapsed time per process: 719.13 sec

 REMARK: Memory usage printed may not be correct.
 CPU Time for LCCSD(T)(tot):     10035.13 sec. Elapsed time: 11215.82 sec. Memory usage:    89.20 MW (max).

 Direct file usage                 292.04 MB (local),          292.04 MB (max),            292.04 MB (tot)

 Max. memory usage (overall):       89.20 MW (local),           89.20 MW (max),             89.20 MW (tot)
 Max. GA usage (overall):            0.00 MW (local),            0.00 MW (max),              0.00 MW (tot)
 Max. memory+GA usage:              89.20 MW (local),           89.20 MW (max),             89.20 MW (tot)


 **********************************************************************************************************************************
 DATASETS  * FILE   NREC   LENGTH (MB)   RECORD NAMES
              1      19       38.70       500      610      700      900      950      970     1000      129      960     1100   
                                          VAR    BASINP    GEOM    SYMINP    ZMAT    AOBASIS   BASIS     P2S    ABASIS      S 
                                         1400     1410     1200     1210     1080     1600     1650     1700      960(1)
                                           T        V       H0       H01     AOSYM     SMH    MOLCAS    OPER    ABASIS    

              2       5       12.23       700     1000      520     2100     7360   
                                         GEOM     BASIS   MCVARS     RHF    F12ABS    

 PROGRAMS   *        TOTAL  LCCSD(T)     DF-HF       INT
 CPU TIMES  *     10441.59  10367.51     73.40      0.53
 REAL TIME  *     11637.10 SEC
 DISK USED  *       993.79 MB
 **********************************************************************************************************************************

 PNO-LCCSD(T)-F12/cc-pVTZ-F12 energy=   -340.070347269146

    LCCSD(T)-F12           DF-HF
   -340.09247301   -338.50036775
 **********************************************************************************************************************************
 Molpro calculation terminated
