
 Primary working directories    : /var/tmp/pbs.408935.bp1/molpro.w8c3FxKg9B
 Secondary working directories  : /var/tmp/pbs.408935.bp1/molpro.w8c3FxKg9B
 Wavefunction directory         : /home/lb17101/molpro_test/inp/lowmem/
 Main file repository           : /home/lb17101/molpro_test/inp/lowmem/

 id        : uob

 Nodes                         nprocs
 bp1-01-04-01.data.bp.acrc.priv    1

 Using customized tuning parameters: mindgm=1; mindgv=20; mindgc=4; mindgr=1; noblas=0; minvec=7
 default implementation of scratch files=df  


 Variables initialized (934), CPU time= 0.00 sec
 geomtyp=xyz
 nosym
 noorient
 geometry={
  C      -0.817124855411       0.998242096877      -0.038005469421
  C      -0.742289382837      -0.086060754173       0.938653644988
  C      -0.060603669924      -1.077261243972      -0.095619822645
  C       0.013953029998       0.133711463341      -0.748832025017
  C       1.488781348196       0.059484089190      -0.009036812664
  H       0.004824529448       2.332791668128       0.036398485982
  H      -1.794724660781       1.470313844631      -0.144207304721
  H      -1.341902870124      -0.718262014807       1.976798147010
  H      -1.325094497402      -0.900611336356      -0.361968635468
  H       1.641315808890      -1.371737862009      -0.428197711288
  H      -0.047153237189       0.827566270426      -1.895202472652
  H       1.785329431971       0.012842878670       0.694300109470
  H       1.413259695302      -0.560187468823      -1.089388984879
 }
 basis=avqz
 df-uks,pbe0
 Commands  initialized (763), CPU time= 0.01 sec, 617 directives.
 Default parameters read. Elapsed time= 0.06 sec

 Checking input...
 Passed
1


                                         ***  PROGRAM SYSTEM MOLPRO  ***
                                       Copyright, TTI GmbH Stuttgart, 2015
                                    Version 2019.2 linked Oct 25 2019 22:50:27


 **********************************************************************************************************************************
 LABEL *                                                                                 
  64 bit serial version                                                                  DATE: 14-Oct-20          TIME: 13:10:56  
 **********************************************************************************************************************************

 SHA1:             8dbd9ae1082e4ce945b0f27595c9eb2d4aa09004
 **********************************************************************************************************************************
 SETTING GEOMTYP        =    XYZ

 Variable memory set to  512000000 words,  buffer space 

 ZSYMEL=NOSYM

 SETTING BASIS          =    AVQZ


 Recomputing integrals since basis changed


 Using spherical harmonics

 Library entry C      S aug-cc-pVQZ          selected for orbital group  1
 Library entry C      P aug-cc-pVQZ          selected for orbital group  1
 Library entry C      D aug-cc-pVQZ          selected for orbital group  1
 Library entry C      F aug-cc-pVQZ          selected for orbital group  1
 Library entry C      G aug-cc-pVQZ          selected for orbital group  1
 Library entry H      S aug-cc-pVQZ          selected for orbital group  2
 Library entry H      P aug-cc-pVQZ          selected for orbital group  2
 Library entry H      D aug-cc-pVQZ          selected for orbital group  2
 Library entry H      F aug-cc-pVQZ          selected for orbital group  2


 PROGRAM * SEWARD (Integral evaluation for generally contracted gaussian basis sets)     Author: Roland Lindh, 1990

 Geometry written to block  1 of record 700


 Point group  C1  



 ATOMIC COORDINATES

 NR  ATOM    CHARGE       X              Y              Z

   1  C       6.00   -1.544142186    1.886404169   -0.071819928
   2  C       6.00   -1.402723639   -0.162631255    1.773798315
   3  C       6.00   -0.114524338   -2.035728716   -0.180695277
   4  C       6.00    0.026367405    0.252678045   -1.415087441
   5  C       6.00    2.813389007    0.112408637   -0.017077101
   6  H       1.00    0.009117039    4.408337358    0.068783170
   7  H       1.00   -3.391538078    2.778490484   -0.272512311
   8  H       1.00   -2.535828910   -1.357318494    3.735607101
   9  H       1.00   -2.504065689   -1.701908770   -0.684021587
  10  H       1.00    3.101637363   -2.592208874   -0.809176401
  11  H       1.00   -0.089106704    1.563873601   -3.581413624
  12  H       1.00    3.373783669    0.024269523    1.312037055
  13  H       1.00    2.670673767   -1.058600894   -2.058646825

 Bond lengths in Bohr (Angstrom)

 1-2  2.761313469  1-4  2.634374505  1-7  2.061302259  2-3  2.997998788  2-4  3.519058878
     ( 1.461224160)     ( 1.394050953)     ( 1.090794181)     ( 1.586472637)     ( 1.862205762)

 2-8  2.561229952  3-4  2.603916282  3-5  3.635098562  3-9  2.464686795  4-5  3.121153285
     ( 1.355344523)     ( 1.377933155)     ( 1.923611318)     ( 1.304256084)     ( 1.651643190)

  4-11  2.534864333   5-12  1.445114224   5-13  2.357888441
       ( 1.341392438)       ( 0.764721514)       ( 1.247740829)

 Bond angles

  1-2-3   92.85939083   1-2-4   47.74354845   1-2-8  146.66069493   1-4-2   50.87822210

  1- 4- 3  105.72606356   1- 4- 5  109.37916805   1- 4-11   95.03842218   2- 1- 4   81.37822945

  2-1-7  115.60205851   2-3-4   77.48002756   2-3-5   86.99280309   2-3-9   68.40320831

  2- 4- 3   56.27102862   2- 4- 5   87.21618883   2- 4-11  144.78315190   3- 2- 4   46.24894381

  3- 2- 8  113.45462268   3- 4- 5   78.25737025   3- 4-11  149.00975739   3- 5- 4   44.53418277

  3- 5-12  108.52387693   3- 5-13   67.59153230   4- 1- 7  138.85447652   4- 2- 8  158.24980067

  4- 3- 5   57.20844698   4- 3- 9   80.59681791   4- 5-12  139.55005955   4- 5-13   65.19363266

  5- 3- 9  135.23920966   5- 4-11  116.53328414  12- 5-13  142.14121380

 NUCLEAR CHARGE:                   38
 NUMBER OF PRIMITIVE AOS:        1046
 NUMBER OF SYMMETRY AOS:          849
 NUMBER OF CONTRACTIONS:          768   (  768A   )
 NUMBER OF CORE ORBITALS:           5   (    5A   )
 NUMBER OF VALENCE ORBITALS:       28   (   28A   )


 NUCLEAR REPULSION ENERGY  175.95998823


 Eigenvalues of metric

         1 0.363E-06 0.130E-05 0.183E-05 0.201E-05 0.234E-05 0.258E-05 0.288E-05 0.395E-05


 OPERATOR DM      FOR CENTER  0  COORDINATES:    0.000000    0.000000    0.000000


 **********************************************************************************************************************************
 DATASETS  * FILE   NREC   LENGTH (MB)   RECORD NAMES
              1      18       51.66       500      610      700      900      950      970     1000      129      960     1100   
                                          VAR    BASINP    GEOM    SYMINP    ZMAT    AOBASIS   BASIS     P2S    ABASIS      S 
                                         1400     1410     1200     1210     1080     1600     1650     1700   
                                           T        V       H0       H01     AOSYM     SMH    MOLCAS    OPER   

 PROGRAMS   *        TOTAL       INT
 CPU TIMES  *         1.12      1.00
 REAL TIME  *         2.35 SEC
 DISK USED  *        52.38 MB
 **********************************************************************************************************************************

 Density functional group PBE0=PBEX+PBEC
 Functional: PBEX(Automatically generated (new) PBEX)                          Gradient terms: 1
 Functional: PBEC(Automatically generated (new) PBEC)                          Gradient terms: 1


 Exact exchange will be calculated, factor:  0.2500

 Functional: PBEX                      Factor:  0.7500
 Functional: PBEC                      Factor:  1.0000

 Generated new metagrid on record  1800.2 with target accuracy 1.0D-06 and 55448 points in CPU time    1.6
 Computed new grid on record 1800.1 in CPU time    1.8
  617908 words reserved for DFT integration

 PROGRAM * UKS-SCF (Unrestricted Kohn-Sham)     Authors: W. Meyer, H.-J. Werner, P.J. Knowles, 1993

 NUMBER OF ELECTRONS:      19+   19-    SPACE SYMMETRY=1    SPIN SYMMETRY: Singlet 
 CONVERGENCE THRESHOLDS:    1.00E-05 (Density)    1.00E-06 (Energy)
 INTEGRAL THRESHOLDS:       1.00E-13 (Initial)    1.00E-13 (Final)
 MAX. NUMBER OF ITERATIONS:       60
 INTERPOLATION TYPE:            DIIS
 INTERPOLATION STEPS:              2 (START)      1 (STEP)
 LEVEL SHIFTS:                 -0.20 (ALPHA)  -0.20 (BETA) 



 Use fine grid record 1800.2 for energy threshold  1.0D-06

 Basis set AUG-CC-PVQZ/JKFIT generated.  Number of basis functions:   1318 

 Orbital guess generated from atomic densities. Full valence occupancy:   33
 Using density fitting in orbital guess

 Coulomb and exchange fitting
 Thresholds for fitting:       THRAO_COUL= 1.0D-16    THRAO_EXCH= 1.0D-14    THRMO= 1.0D-13    THRPROD= 1.0D-13    THRASM= 1.0D-13
                               THR2HLF=    1.0D-13

 Molecular orbital dump at record        2200.2

 Initial alpha occupation  19
 Initial beta  occupation  19

 ITERATION    DDIFF          GRAD             ENERGY        2-EL.EN.            DIPOLE MOMENTS         DIIS  CPU(IT) CPU(TOT)
    1      0.000D+00      0.000D+00      -194.13304630    535.273449   -0.62721    0.56817   -0.76529    0     27.1     54.6
    2      0.393D-02      0.836D-03      -194.32515977    514.463594    0.08232    0.35141    0.10441    1     26.9     81.6
    3      0.124D-02      0.431D-03      -194.36971399    520.242557   -0.10411    0.21941   -0.13207    2     27.2    108.8
    4      0.299D-03      0.559D-04      -194.37179587    520.052489   -0.08112    0.20806   -0.10897    3     26.6    135.4
    5      0.236D-03      0.300D-04      -194.37291167    519.964735   -0.04471    0.14590   -0.11050    4     27.0    162.4
    6      0.188D-03      0.164D-04      -194.37340520    519.849682   -0.01829    0.11671   -0.10492    5     26.8    189.2
    7      0.120D-03      0.760D-05      -194.37354284    519.833494    0.00573    0.08966   -0.11268    6     26.8    216.0
    8      0.613D-04      0.468D-05      -194.37357817    519.838444    0.01285    0.08749   -0.10950    7     26.9    242.9
    9      0.443D-04      0.226D-05      -194.37359103    519.830578    0.01686    0.07826   -0.11368    8     26.8    269.7
   10      0.199D-04      0.123D-05      -194.37359421    519.834876    0.02277    0.07815   -0.11280    9     26.8    296.5
   11      0.991D-05      0.649D-06      -194.37359502    519.833530    0.02290    0.07634   -0.11342    9     26.8    323.3
   12      0.652D-05      0.267D-06      -194.37359515    519.834866    0.02365    0.07616   -0.11381    9     26.5    349.8

 Final alpha occupancy:  19
 Final beta  occupancy:  19

 !UKS STATE  1.1 Energy              -194.373595153011
 Nuclear energy                       175.95998823
 One-electron energy                 -607.74374682
 Two-electron energy                  259.91743317
 Density functional                   -22.50726973     PBEX=-28.34571825 PBEC= -1.24798104
 Virial quotient                       -1.00201719
 !UKS STATE  1.1 Dipole moment          0.02365088     0.07615849    -0.11380711
 Dipole moment /Debye                   0.06011060     0.19356289    -0.28924987

 Orbital energies for positive spin:

         1.1          2.1          3.1          4.1          5.1          6.1          7.1          8.1          9.1         10.1
    -10.288672   -10.283935   -10.274397   -10.263101   -10.254917    -0.993078    -0.810088    -0.700727    -0.667459    -0.575511

        11.1         12.1         13.1         14.1         15.1         16.1         17.1         18.1         19.1         20.1
     -0.540574    -0.483568    -0.445092    -0.404806    -0.360650    -0.339128    -0.299018    -0.252523    -0.184407    -0.078566

        21.1
     -0.033281

 Orbital energies for negative spin:

         1.1          2.1          3.1          4.1          5.1          6.1          7.1          8.1          9.1         10.1
    -10.288672   -10.283935   -10.274397   -10.263101   -10.254917    -0.993078    -0.810088    -0.700727    -0.667459    -0.575511

        11.1         12.1         13.1         14.1         15.1         16.1         17.1         18.1         19.1         20.1
     -0.540574    -0.483568    -0.445092    -0.404806    -0.360650    -0.339128    -0.299018    -0.252523    -0.184407    -0.078566

        21.1
     -0.033281


 HOMO     19.1    -0.184407 =      -5.0180eV
 LUMO     20.1    -0.078566 =      -2.1379eV
 LUMO-HOMO         0.105841 =       2.8801eV

 EXPECTATION VALUE OF S**2:            -0.00000000

 Occupation number threshold for pseudo-canonical orbitals: 1.9990 (occupied), 0.0010 (virtual)

 Number of pseudo-canonical occupied orbitals per symmetry:   19
 Number of active natural orbitals per symmetry:               0

 Natural orbitals saved to record    2200.2 (Orbital set 3)

 Orbital spaces for UNO-CAS (Min. occupation: 0.020  Max. occupation: 1.980):

 Closed:       19
 Active:        0


 **********************************************************************************************************************************
 DATASETS  * FILE   NREC   LENGTH (MB)   RECORD NAMES
              1      19       53.43       500      610      700      900      950      970     1000      129      960     1100   
                                          VAR    BASINP    GEOM    SYMINP    ZMAT    AOBASIS   BASIS     P2S    ABASIS      S 
                                         1400     1410     1200     1210     1080     1600     1650     1700     1800   
                                           T        V       H0       H01     AOSYM     SMH    MOLCAS    OPER     GRID   

              2       5       29.09       700     1000      520     1800     2200   
                                         GEOM     BASIS   MCVARS    GRID      UKS  

 PROGRAMS   *        TOTAL    DF-UKS       INT
 CPU TIMES  *       353.42    352.30      1.00
 REAL TIME  *       361.05 SEC
 DISK USED  *       561.47 MB
 **********************************************************************************************************************************

 DF-UKS/aug-cc-pVQZ energy=   -194.373595153011

          DF-UKS
   -194.37359515
 **********************************************************************************************************************************
 Molpro calculation terminated
