
 Primary working directories    : /var/tmp/pbs.408928.bp1/molpro.FdqU3u0TGQ
 Secondary working directories  : /var/tmp/pbs.408928.bp1/molpro.FdqU3u0TGQ
 Wavefunction directory         : /home/lb17101/molpro_test/inp/lowmem/
 Main file repository           : /home/lb17101/molpro_test/inp/lowmem/

 id        : uob

 Nodes                         nprocs
 bp1-01-02-03.data.bp.acrc.priv    1

 Using customized tuning parameters: mindgm=1; mindgv=20; mindgc=4; mindgr=1; noblas=0; minvec=7
 default implementation of scratch files=df  


 Variables initialized (934), CPU time= 0.00 sec
 geomtyp=xyz
 nosym
 noorient
 geometry={
  O      -1.049472663421      -1.852859168200       0.763061125536
  C      -0.509268506747      -0.433761368700       1.024577681349
  C       0.770416392874      -0.574485423187      -0.086947993704
  C       1.174884811795       0.757852605517      -0.434819171964
  C       0.222465949756       1.539500680046       0.011579381762
  C      -1.523107057727       0.214093232642      -0.313334394692
  C      -0.503208337603      -1.217176803811      -0.654157377320
  H      -0.679109253028      -0.025096067312       2.211029468817
  H       1.648691354217      -1.349975301646      -0.019497629914
  H       2.098793408134       1.491510097759      -0.435150204048
  H       0.443107350787       2.729855232221       0.397744902001
  H      -1.323118651666       1.385355044179      -0.213578350879
  H      -0.278712078420      -2.028811954776      -1.664570408723
 }
 basis=avqz
 df-uks,pbe0
 Commands  initialized (763), CPU time= 0.00 sec, 617 directives.
 Default parameters read. Elapsed time= 0.04 sec

 Checking input...
 Passed
1


                                         ***  PROGRAM SYSTEM MOLPRO  ***
                                       Copyright, TTI GmbH Stuttgart, 2015
                                    Version 2019.2 linked Oct 25 2019 22:50:27


 **********************************************************************************************************************************
 LABEL *                                                                                 
  64 bit serial version                                                                  DATE: 14-Oct-20          TIME: 13:10:54  
 **********************************************************************************************************************************

 SHA1:             8dbd9ae1082e4ce945b0f27595c9eb2d4aa09004
 **********************************************************************************************************************************
 SETTING GEOMTYP        =    XYZ

 Variable memory set to  512000000 words,  buffer space 

 ZSYMEL=NOSYM

 SETTING BASIS          =    AVQZ


 Recomputing integrals since basis changed


 Using spherical harmonics

 Library entry O      S aug-cc-pVQZ          selected for orbital group  1
 Library entry O      P aug-cc-pVQZ          selected for orbital group  1
 Library entry O      D aug-cc-pVQZ          selected for orbital group  1
 Library entry O      F aug-cc-pVQZ          selected for orbital group  1
 Library entry O      G aug-cc-pVQZ          selected for orbital group  1
 Library entry C      S aug-cc-pVQZ          selected for orbital group  2
 Library entry C      P aug-cc-pVQZ          selected for orbital group  2
 Library entry C      D aug-cc-pVQZ          selected for orbital group  2
 Library entry C      F aug-cc-pVQZ          selected for orbital group  2
 Library entry C      G aug-cc-pVQZ          selected for orbital group  2
 Library entry H      S aug-cc-pVQZ          selected for orbital group  3
 Library entry H      P aug-cc-pVQZ          selected for orbital group  3
 Library entry H      D aug-cc-pVQZ          selected for orbital group  3
 Library entry H      F aug-cc-pVQZ          selected for orbital group  3


 PROGRAM * SEWARD (Integral evaluation for generally contracted gaussian basis sets)     Author: Roland Lindh, 1990

 Geometry written to block  1 of record 700


 Point group  C1  



 ATOMIC COORDINATES

 NR  ATOM    CHARGE       X              Y              Z

   1  O       8.00   -1.983215909   -3.501396375    1.441976544
   2  C       6.00   -0.962378002   -0.819690190    1.936171211
   3  C       6.00    1.455875984   -1.085620112   -0.164307895
   4  C       6.00    2.220210522    1.432133867   -0.821689149
   5  C       6.00    0.420399717    2.909234654    0.021881860
   6  C       6.00   -2.878255197    0.404577575   -0.592116191
   7  C       6.00   -0.950925942   -2.300130804   -1.236178285
   8  H       1.00   -1.283330497   -0.047424694    4.178240149
   9  H       1.00    3.115575123   -2.551083595   -0.036845181
  10  H       1.00    3.966144733    2.818545597   -0.822314709
  11  H       1.00    0.837351537    5.158678749    0.751628932
  12  H       1.00   -2.500331882    2.617941619   -0.403604589
  13  H       1.00   -0.526689496   -3.833898953   -3.145582188

 Bond lengths in Bohr (Angstrom)

 1-2  2.911681038  1-7  3.111458635  2-3  3.214138071  2-6  3.400243253  2-7  3.500805177
     ( 1.540795251)     ( 1.646513002)     ( 1.700848620)     ( 1.799331241)     ( 1.852546320)

 2-8  2.392964192  3-4  2.712091905  3-7  2.901144234  3-9  2.217753637  4-5  2.476440533
     ( 1.266302117)     ( 1.435177230)     ( 1.535219414)     ( 1.173584684)     ( 1.310475894)

  4-10  2.229444806   5-11  2.401328454   6- 7  3.383025489   6-12  2.253296041   7-13  2.485607482
       ( 1.179771385)       ( 1.270728294)       ( 1.790219993)       ( 1.192392914)       ( 1.315326835)

 Bond angles

  1-2-3   94.39677864   1-2-6   90.45059767   1-2-7   57.17044517   1-2-8  114.15681031

  1- 7- 2   51.84429119   1- 7- 3   96.82572772   1- 7- 6   87.46598176   1- 7-13  118.65919494

  2-1-7   70.98526365   2-3-4  107.07568412   2-3-7   69.62936597   2-3-9  125.46253576

  2- 6- 7   62.14061977   2- 6-12  101.35943393   2- 7- 3   59.39477277   2- 7- 6   59.17105699

  2- 7-13  163.25864346   3- 2- 6   88.15444875   3- 2- 7   50.97586126   3- 2- 8  137.72429790

  3- 4- 5  105.44608277   3- 4-10  142.94674450   3- 7- 6   93.87604209   3- 7-13  113.61213076

  4- 3- 7  122.20045134   4- 3- 9  114.61128551   4- 5-11  122.41584332   5- 4-10  101.43944415

  6- 2- 7   58.68832325   6- 2- 8  120.32495520   6- 7-13  137.46110132   7- 2- 8  170.38397888

  7- 3- 9  111.43581250   7- 6-12  134.88626563

 NUCLEAR CHARGE:                   50
 NUMBER OF PRIMITIVE AOS:        1168
 NUMBER OF SYMMETRY AOS:          939
 NUMBER OF CONTRACTIONS:          836   (  836A   )
 NUMBER OF CORE ORBITALS:           7   (    7A   )
 NUMBER OF VALENCE ORBITALS:       34   (   34A   )


 NUCLEAR REPULSION ENERGY  271.35538770


 Eigenvalues of metric

         1 0.784E-06 0.186E-05 0.193E-05 0.247E-05 0.316E-05 0.343E-05 0.405E-05 0.421E-05


 OPERATOR DM      FOR CENTER  0  COORDINATES:    0.000000    0.000000    0.000000


 **********************************************************************************************************************************
 DATASETS  * FILE   NREC   LENGTH (MB)   RECORD NAMES
              1      18       55.62       500      610      700      900      950      970     1000      129      960     1100   
                                          VAR    BASINP    GEOM    SYMINP    ZMAT    AOBASIS   BASIS     P2S    ABASIS      S 
                                         1400     1410     1200     1210     1080     1600     1650     1700   
                                           T        V       H0       H01     AOSYM     SMH    MOLCAS    OPER   

 PROGRAMS   *        TOTAL       INT
 CPU TIMES  *         0.93      0.84
 REAL TIME  *         1.62 SEC
 DISK USED  *        56.37 MB
 **********************************************************************************************************************************

 Density functional group PBE0=PBEX+PBEC
 Functional: PBEX(Automatically generated (new) PBEX)                          Gradient terms: 1
 Functional: PBEC(Automatically generated (new) PBEC)                          Gradient terms: 1


 Exact exchange will be calculated, factor:  0.2500

 Functional: PBEX                      Factor:  0.7500
 Functional: PBEC                      Factor:  1.0000

 Generated new metagrid on record  1800.2 with target accuracy 1.0D-06 and 60428 points in CPU time    1.2
 Computed new grid on record 1800.1 in CPU time    1.4
  672898 words reserved for DFT integration

 PROGRAM * UKS-SCF (Unrestricted Kohn-Sham)     Authors: W. Meyer, H.-J. Werner, P.J. Knowles, 1993

 NUMBER OF ELECTRONS:      25+   25-    SPACE SYMMETRY=1    SPIN SYMMETRY: Singlet 
 CONVERGENCE THRESHOLDS:    1.00E-05 (Density)    1.00E-06 (Energy)
 INTEGRAL THRESHOLDS:       1.00E-13 (Initial)    1.00E-13 (Final)
 MAX. NUMBER OF ITERATIONS:       60
 INTERPOLATION TYPE:            DIIS
 INTERPOLATION STEPS:              2 (START)      1 (STEP)
 LEVEL SHIFTS:                 -0.20 (ALPHA)  -0.20 (BETA) 



 Use fine grid record 1800.2 for energy threshold  1.0D-06

 Basis set AUG-CC-PVQZ/JKFIT generated.  Number of basis functions:   1450 

 Orbital guess generated from atomic densities. Full valence occupancy:   41
 Using density fitting in orbital guess

 Coulomb and exchange fitting
 Thresholds for fitting:       THRAO_COUL= 1.0D-16    THRAO_EXCH= 1.0D-14    THRMO= 1.0D-13    THRPROD= 1.0D-13    THRASM= 1.0D-13
                               THR2HLF=    1.0D-13

 Molecular orbital dump at record        2200.2

 Initial alpha occupation  25
 Initial beta  occupation  25

 ITERATION    DDIFF          GRAD             ENERGY        2-EL.EN.            DIPOLE MOMENTS         DIIS  CPU(IT) CPU(TOT)
    1      0.000D+00      0.000D+00      -306.62378190    823.484626    1.48525    1.81116   -0.19902    0     25.0     48.8
    2      0.228D-02      0.571D-03      -306.71328608    810.547002    1.35558    0.90231   -0.18964    1     25.4     74.2
    3      0.795D-03      0.327D-03      -306.73725264    813.315741    1.22928    1.10912   -0.18759    2     25.3     99.5
    4      0.180D-03      0.596D-04      -306.73852161    813.445900    1.18187    1.02080   -0.14972    3     25.2    124.7
    5      0.137D-03      0.277D-04      -306.73913118    813.263508    1.16944    0.99821   -0.15187    4     25.3    150.0
    6      0.113D-03      0.118D-04      -306.73938324    813.181363    1.13418    0.98184   -0.14409    5     25.4    175.4
    7      0.435D-04      0.558D-05      -306.73942947    813.192901    1.14993    0.97401   -0.14329    6     25.5    200.9
    8      0.274D-04      0.305D-05      -306.73944503    813.176344    1.13751    0.97534   -0.14294    7     25.4    226.3
    9      0.145D-04      0.140D-05      -306.73944846    813.171453    1.14018    0.97503   -0.14165    8     25.6    251.9
   10      0.859D-05      0.769D-06      -306.73944944    813.176878    1.13916    0.97411   -0.14246    9     25.5    277.4
   11      0.330D-05      0.367D-06      -306.73944965    813.175860    1.13925    0.97466   -0.14163    9     25.7    303.1

 Final alpha occupancy:  25
 Final beta  occupancy:  25

 !UKS STATE  1.1 Energy              -306.739449654205
 Nuclear energy                       271.35538770
 One-electron energy                 -952.48257839
 Two-electron energy                  406.58793012
 Density functional                   -32.20018909     PBEX=-40.73991734 PBEC= -1.64525109
 Virial quotient                       -1.00952590
 !UKS STATE  1.1 Dipole moment          1.13924783     0.97466416    -0.14163139
 Dipole moment /Debye                   2.89548950     2.47718694    -0.35996751

 Orbital energies for positive spin:

         1.1          2.1          3.1          4.1          5.1          6.1          7.1          8.1          9.1         10.1
    -19.226104   -10.355969   -10.343168   -10.311604   -10.293463   -10.288300   -10.261382    -1.033829    -0.890275    -0.765582

        11.1         12.1         13.1         14.1         15.1         16.1         17.1         18.1         19.1         20.1
     -0.707083    -0.632831    -0.578417    -0.544379    -0.512621    -0.486526    -0.439701    -0.424486    -0.393313    -0.379727

        21.1         22.1         23.1         24.1         25.1         26.1         27.1
     -0.355371    -0.325449    -0.282657    -0.269264    -0.245090    -0.083140    -0.053676

 Orbital energies for negative spin:

         1.1          2.1          3.1          4.1          5.1          6.1          7.1          8.1          9.1         10.1
    -19.226104   -10.355969   -10.343168   -10.311604   -10.293463   -10.288300   -10.261382    -1.033829    -0.890275    -0.765582

        11.1         12.1         13.1         14.1         15.1         16.1         17.1         18.1         19.1         20.1
     -0.707083    -0.632831    -0.578417    -0.544379    -0.512621    -0.486526    -0.439701    -0.424486    -0.393313    -0.379727

        21.1         22.1         23.1         24.1         25.1         26.1         27.1
     -0.355371    -0.325449    -0.282657    -0.269264    -0.245090    -0.083140    -0.053676


 HOMO     25.1    -0.245090 =      -6.6692eV
 LUMO     26.1    -0.083140 =      -2.2624eV
 LUMO-HOMO         0.161949 =       4.4069eV

 EXPECTATION VALUE OF S**2:            -0.00000000

 Occupation number threshold for pseudo-canonical orbitals: 1.9990 (occupied), 0.0010 (virtual)

 Number of pseudo-canonical occupied orbitals per symmetry:   25
 Number of active natural orbitals per symmetry:               0

 Natural orbitals saved to record    2200.2 (Orbital set 3)

 Orbital spaces for UNO-CAS (Min. occupation: 0.020  Max. occupation: 1.980):

 Closed:       25
 Active:        0


 **********************************************************************************************************************************
 DATASETS  * FILE   NREC   LENGTH (MB)   RECORD NAMES
              1      19       57.55       500      610      700      900      950      970     1000      129      960     1100   
                                          VAR    BASINP    GEOM    SYMINP    ZMAT    AOBASIS   BASIS     P2S    ABASIS      S 
                                         1400     1410     1200     1210     1080     1600     1650     1700     1800   
                                           T        V       H0       H01     AOSYM     SMH    MOLCAS    OPER     GRID   

              2       5       33.92       700     1000      520     1800     2200   
                                         GEOM     BASIS   MCVARS    GRID      UKS  

 PROGRAMS   *        TOTAL    DF-UKS       INT
 CPU TIMES  *       305.89    304.96      0.84
 REAL TIME  *       312.45 SEC
 DISK USED  *       781.08 MB
 **********************************************************************************************************************************

 DF-UKS/aug-cc-pVQZ energy=   -306.739449654205

          DF-UKS
   -306.73944965
 **********************************************************************************************************************************
 Molpro calculation terminated
