
 Primary working directories    : /var/tmp/pbs.367953.bp1/molpro.bMSS9700VK
 Secondary working directories  : /var/tmp/pbs.367953.bp1/molpro.bMSS9700VK
 Wavefunction directory         : /home/lb17101/molpro_test/inp/
 Main file repository           : /home/lb17101/molpro_test/inp/

 id        : uob

 Nodes                         nprocs
 bp1-01-09-01.data.bp.acrc.priv    1

 Using customized tuning parameters: mindgm=1; mindgv=20; mindgc=4; mindgr=1; noblas=0; minvec=7
 default implementation of scratch files=df  


 Variables initialized (934), CPU time= 0.00 sec
 geomtyp=xyz
 nosym
 noorient
 geometry={
  C       2.250984361175       0.102412312637      -0.114950704608
  C       0.774119235155      -0.193081904136       0.001928249385
  C       0.098792825426      -1.328728757009       0.156502551750
  N      -1.277175395197      -0.784508053774       0.555362059032
  C      -1.065371907431       0.524149272361       0.164703442700
  O      -2.938095716150       1.543201186201       0.275719853352
  N      -0.782160471462       1.625713166625      -0.146928892625
  H       2.548998212588       1.064452536768       0.409887636166
  H       2.336842082373       0.368475195192      -1.168249625384
  H       3.002214616545      -0.745919733798       0.198795372472
  H       0.400820266582      -2.401448218991       0.207213679609
  H      -2.172389821774      -1.262824324335       0.099631279159
  H      -3.104060393216       1.379661324724      -0.749168520052
 }
 basis=avtz
 df-hf
 df-ccsd(t)
 Commands  initialized (763), CPU time= 0.01 sec, 617 directives.
 Default parameters read. Elapsed time= 0.06 sec

 Checking input...
 Passed
1


                                         ***  PROGRAM SYSTEM MOLPRO  ***
                                       Copyright, TTI GmbH Stuttgart, 2015
                                    Version 2019.2 linked Oct 25 2019 22:50:27


 **********************************************************************************************************************************
 LABEL *                                                                                 
  64 bit serial version                                                                  DATE: 24-Sep-20          TIME: 02:13:49  
 **********************************************************************************************************************************

 SHA1:             8dbd9ae1082e4ce945b0f27595c9eb2d4aa09004
 **********************************************************************************************************************************
 SETTING GEOMTYP        =    XYZ

 Variable memory set to 4096000000 words,  buffer space 

 ZSYMEL=NOSYM

 SETTING BASIS          =    AVTZ


 Recomputing integrals since basis changed


 Using spherical harmonics

 Library entry C      S aug-cc-pVTZ          selected for orbital group  1
 Library entry C      P aug-cc-pVTZ          selected for orbital group  1
 Library entry C      D aug-cc-pVTZ          selected for orbital group  1
 Library entry C      F aug-cc-pVTZ          selected for orbital group  1
 Library entry N      S aug-cc-pVTZ          selected for orbital group  2
 Library entry N      P aug-cc-pVTZ          selected for orbital group  2
 Library entry N      D aug-cc-pVTZ          selected for orbital group  2
 Library entry N      F aug-cc-pVTZ          selected for orbital group  2
 Library entry O      S aug-cc-pVTZ          selected for orbital group  4
 Library entry O      P aug-cc-pVTZ          selected for orbital group  4
 Library entry O      D aug-cc-pVTZ          selected for orbital group  4
 Library entry O      F aug-cc-pVTZ          selected for orbital group  4
 Library entry H      S aug-cc-pVTZ          selected for orbital group  6
 Library entry H      P aug-cc-pVTZ          selected for orbital group  6
 Library entry H      D aug-cc-pVTZ          selected for orbital group  6


 PROGRAM * SEWARD (Integral evaluation for generally contracted gaussian basis sets)     Author: Roland Lindh, 1990

 Geometry written to block  1 of record 700


 Point group  C1  



 ATOMIC COORDINATES

 NR  ATOM    CHARGE       X              Y              Z

   1  C       6.00    4.253743953    0.193531223   -0.217225350
   2  C       6.00    1.462873342   -0.364871918    0.003643863
   3  C       6.00    0.186691383   -2.510933445    0.295746961
   4  N       7.00   -2.413511710   -1.482505364    1.049482192
   5  C       6.00   -2.013261126    0.990498573    0.311244398
   6  O       8.00   -5.552196231    2.916227597    0.521035010
   7  N       7.00   -1.478069077    3.072152642   -0.277655367
   8  H       1.00    4.816908514    2.011523767    0.774575374
   9  H       1.00    4.415991532    0.696317203   -2.207671837
  10  H       1.00    5.673363392   -1.409584008    0.375668809
  11  H       1.00    0.757440529   -4.538079436    0.391577104
  12  H       1.00   -4.105221799   -2.386392116    0.188275831
  13  H       1.00   -5.865824017    2.607182048   -1.415723324

 Bond lengths in Bohr (Angstrom)

  1- 2  2.854742728   1- 8  2.146140697   1- 9  2.059367679   1-10  2.221895874   2- 3  2.513870459
       ( 1.510664795)       ( 1.135688748)       ( 1.089770445)       ( 1.175776662)       ( 1.330282958)

  2- 5  3.743682425   3- 4  2.896003667   3-11  2.108141095   4- 5  2.611693712   4-12  2.102515323
       ( 1.981071424)       ( 1.532499143)       ( 1.115580225)       ( 1.382048794)       ( 1.112603194)

  5- 7  2.228568403   6-13  1.986178336
       ( 1.179307612)       ( 1.051040312)

 Bond angles

  1-2-3  132.24281416   1-2-5  147.49004832   2-1-8  112.73559864   2-1-9  101.51114450

  2- 1-10  117.57124005   2- 3- 4  100.53781114   2- 3-11  133.52971231   2- 5- 4   79.78803456

  2- 5- 7   95.36355499   3- 2- 5   80.10447976   3- 4- 5   97.18612895   3- 4-12  117.59072171

  4- 3-11  124.94064288   4- 5- 7  174.85610941   5- 4-12  114.49444450   8- 1- 9  102.66067244

  8- 1-10  108.67584808   9- 1-10  112.56471046

 NUCLEAR CHARGE:                   52
 NUMBER OF PRIMITIVE AOS:         631
 NUMBER OF SYMMETRY AOS:          556
 NUMBER OF CONTRACTIONS:          460   (  460A   )
 NUMBER OF CORE ORBITALS:           7   (    7A   )
 NUMBER OF VALENCE ORBITALS:       34   (   34A   )


 NUCLEAR REPULSION ENERGY  268.16451964


 Eigenvalues of metric

         1 0.596E-05 0.873E-05 0.141E-04 0.147E-04 0.261E-04 0.282E-04 0.422E-04 0.588E-04


 OPERATOR DM      FOR CENTER  0  COORDINATES:    0.000000    0.000000    0.000000


 **********************************************************************************************************************************
 DATASETS  * FILE   NREC   LENGTH (MB)   RECORD NAMES
              1      18       37.94       500      610      700      900      950      970     1000      129      960     1100   
                                          VAR    BASINP    GEOM    SYMINP    ZMAT    AOBASIS   BASIS     P2S    ABASIS      S 
                                         1400     1410     1200     1210     1080     1600     1650     1700   
                                           T        V       H0       H01     AOSYM     SMH    MOLCAS    OPER   

 PROGRAMS   *        TOTAL       INT
 CPU TIMES  *         1.29      1.20
 REAL TIME  *         4.81 SEC
 DISK USED  *        38.55 MB
 **********************************************************************************************************************************


 PROGRAM * RHF-SCF (CLOSED SHELL)       Authors: W. Meyer, H.-J. Werner


 NUMBER OF ELECTRONS:      26+   26-    SPACE SYMMETRY=1    SPIN SYMMETRY: Singlet 
 CONVERGENCE THRESHOLDS:    1.00E-05 (Density)    1.00E-07 (Energy)
 INTEGRAL THRESHOLDS:       1.00E-11 (Initial)    1.00E-11 (Final)
 MAX. NUMBER OF ITERATIONS:       60
 INTERPOLATION TYPE:            DIIS
 INTERPOLATION STEPS:              2 (START)      1 (STEP)
 LEVEL SHIFTS:                  0.00 (CLOSED)  0.00 (OPEN) 




 Basis set AUG-CC-PVTZ/JKFIT generated.  Number of basis functions:   1004 

 Orbital guess generated from atomic densities. Full valence occupancy:   41
 Using density fitting in orbital guess

 Coulomb and exchange fitting
 Thresholds for fitting:       THRAO_COUL= 1.0D-14    THRAO_EXCH= 1.0D-12    THRMO= 1.0D-11    THRPROD= 1.0D-11    THRASM= 1.0D-11
                               THR2HLF=    1.0D-11

 Molecular orbital dump at record        2100.2

 Initial occupancy:  26

 ITERATION   DDIFF            GRAD            ENERGY        2-EL.EN.            DIPOLE MOMENTS         DIIS   CPU(IT)  CPU(TOT)  ORB.
    1      0.000D+00      0.000D+00      -338.24959021    770.590940    4.06288   -4.34258   -1.32750    0      4.3      9.0     start
    2      0.000D+00      0.423D-02      -338.03063308    770.020721   -1.80928    0.02195   -0.15658    1      4.2     13.3     diag
    3      0.698D-02      0.664D-02      -338.46679795    769.415668    2.84997   -2.39158   -0.84810    2      4.2     17.5     diag
    4      0.443D-02      0.896D-03      -338.47753702    769.608941    2.14829   -2.47653   -0.76803    3      4.1     21.5     diag
    5      0.103D-02      0.463D-03      -338.48121258    769.684999    2.26259   -2.30354   -0.82515    4      4.1     25.6     diag
    6      0.455D-03      0.148D-03      -338.48205837    769.518346    2.23371   -2.29514   -0.79690    5      4.1     29.7     diag
    7      0.246D-03      0.729D-04      -338.48236264    769.584459    2.19036   -2.25667   -0.80858    6      4.1     33.7     diag
    8      0.157D-03      0.475D-04      -338.48246941    769.557206    2.16674   -2.24009   -0.80658    7      4.1     37.8     diag
    9      0.101D-03      0.236D-04      -338.48249709    769.554041    2.14648   -2.22708   -0.80522    8      4.1     41.9     diag
   10      0.503D-04      0.139D-04      -338.48250692    769.559182    2.13371   -2.21747   -0.80641    9      4.2     46.1     orth
   11      0.342D-04      0.727D-05      -338.48250958    769.561884    2.12595   -2.21224   -0.80706    9      4.4     50.5     diag
   12      0.194D-04      0.307D-05      -338.48251016    769.560927    2.12215   -2.20948   -0.80709    9      4.2     54.7     diag
   13      0.886D-05      0.161D-05      -338.48251030    769.562633    2.11953   -2.20774   -0.80732    9      4.2     58.9     diag
   14      0.642D-05      0.496D-06      -338.48251031    769.562294    2.11936   -2.20767   -0.80730    9      4.1     63.0     diag
   15      0.114D-05      0.244D-06      -338.48251031    769.562381    2.11942   -2.20771   -0.80730    0      4.1     67.0     orth

 Final occupancy:  26

 !RHF STATE  1.1 Energy              -338.482510314507
 Nuclear energy                       268.16451964
 One-electron energy                 -991.42822025
 Two-electron energy                  384.78119029
 Virial quotient                       -1.00383002
 !RHF STATE  1.1 Dipole moment          2.11941743    -2.20770573    -0.80729927
 Dipole moment /Debye                   5.38666896    -5.61106072    -2.05181568

 Orbital energies:

         1.1          2.1          3.1          4.1          5.1          6.1          7.1          8.1          9.1         10.1
    -20.492702   -15.682098   -15.661112   -11.409264   -11.327585   -11.324903   -11.284219    -1.340181    -1.257459    -1.170258

        11.1         12.1         13.1         14.1         15.1         16.1         17.1         18.1         19.1         20.1
     -1.078990    -0.966497    -0.827334    -0.719741    -0.690777    -0.647432    -0.634766    -0.624109    -0.590808    -0.566882

        21.1         22.1         23.1         24.1         25.1         26.1         27.1         28.1
     -0.526589    -0.519931    -0.478752    -0.402363    -0.387639    -0.320529     0.001689     0.020441


 HOMO     26.1    -0.320529 =      -8.7220eV
 LUMO     27.1     0.001689 =       0.0460eV
 LUMO-HOMO         0.322218 =       8.7680eV


 **********************************************************************************************************************************
 DATASETS  * FILE   NREC   LENGTH (MB)   RECORD NAMES
              1      18       37.94       500      610      700      900      950      970     1000      129      960     1100   
                                          VAR    BASINP    GEOM    SYMINP    ZMAT    AOBASIS   BASIS     P2S    ABASIS      S 
                                         1400     1410     1200     1210     1080     1600     1650     1700   
                                           T        V       H0       H01     AOSYM     SMH    MOLCAS    OPER   

              2       4        8.12       700     1000      520     2100   
                                         GEOM     BASIS   MCVARS     RHF  

 PROGRAMS   *        TOTAL     DF-HF       INT
 CPU TIMES  *        68.40     67.10      1.20
 REAL TIME  *        75.06 SEC
 DISK USED  *       200.10 MB
 **********************************************************************************************************************************


 PROGRAM * CCSD (Closed-shell coupled cluster)     Authors: C. Hampel, H.-J. Werner, 1991, M. Deegan, P.J. Knowles, 1992

                    Density fitting coupled cluster methods (ITF), W. Gyorffy, 2015


 Basis set AUG-CC-PVTZ/MP2FIT generated. Number of basis functions:   1018 

 Convergence thresholds:  THRVAR = 1.00D-08  THRDEN = 1.00D-06

 CCSD(T)     terms to be evaluated (factor= 1.000)


 Number of core orbitals:           7 (   7 )
 Number of closed-shell orbitals:  19 (  19 )
 Number of external orbitals:     434 ( 434 )

 Molecular orbitals read from record     2100.2  Type=RHF/CANONICAL (state 1.1)
 Enter DF-CCSD [ITF]

  Reference energy:                  -338.482510314509

  MP2 correlation energy:              -1.382315681015
  MP2 total energy:                  -339.864825995524

 Transformed 3-ext integrals are computed and stored!

 Transformed 4-ext integrals are computed and stored!

 ITER.      SQ.NORM     CORR.ENERGY   TOTAL ENERGY   ENERGY CHANGE        DEN1      VAR(S)    VAR(P)  DIIS     TIME
   1      1.46489947    -1.39170139  -339.87421171    -0.00938571     0.06657099  4.23e-02  2.29e-02  1  1  2250.51
   2      1.51459687    -1.38508176  -339.86759207     0.00661963    -0.06254414  1.18e-03  1.00e-02  2  2  4087.45
   3      1.53751556    -1.38291181  -339.86542213     0.00216994     0.00450196  3.40e-04  7.16e-04  3  3  5998.10
   4      1.56136638    -1.38415113  -339.86666145    -0.00123932    -0.00551025  1.23e-04  3.24e-04  4  4  7883.37
   5      1.58214425    -1.38390227  -339.86641258     0.00024887    -0.00287443  9.90e-06  1.03e-04  5  5  9820.20
   6      1.59506485    -1.38362987  -339.86614019     0.00027240    -0.00082305  7.03e-06  1.56e-05  6  0 12106.44
   7      1.60131563    -1.38345502  -339.86596534     0.00017485    -0.00035911  9.12e-07  3.00e-06  6  1 14172.62
   8      1.60252389    -1.38341646  -339.86592677     0.00003856    -0.00000944  3.70e-07  7.80e-07  6  2 16122.55
   9      1.60382731    -1.38339620  -339.86590651     0.00002026    -0.00002785  7.96e-08  2.08e-07  6  3 18100.90
  10      1.60392068    -1.38339627  -339.86590659    -0.00000008     0.00000004  3.17e-08  6.17e-08  6  4 20039.93
  11      1.60400889    -1.38339399  -339.86590431     0.00000228     0.00000205  9.93e-09  2.07e-08  6  5 21972.31
  12      1.60408203    -1.38339356  -339.86590388     0.00000043     0.00000119  4.76e-09  6.95e-09  6  0 23943.34
  13      1.60409104    -1.38339243  -339.86590274     0.00000113    -0.00000211  1.44e-09  2.45e-09  6  1 25816.53
  14      1.60412439    -1.38339116  -339.86590148     0.00000127    -0.00000061  4.64e-10  6.99e-10  6  2 27716.33
  15      1.60413598    -1.38339096  -339.86590128     0.00000020     0.00000001  1.02e-10  2.36e-10       29651.94

 Norm of t1 vector:      0.29499354     S-energy:     -0.00000282   T1 diagnostic:  0.03383808

 Time per iteration:                   1976.82 sec

 RESULTS
 =======

  Reference energy:                  -338.482510314509
  CCSD correlation energy:             -1.383390963575
  CCSD total energy:                 -339.865901278084

  Triples (T) contribution:            -0.096107371418
  Total correlation energy:            -1.479498334993
  CCSD[T] total energy:              -339.972607122567
 !CCSD(T) total energy:              -339.962008649503





 **********************************************************************************************************************************
 DATASETS  * FILE   NREC   LENGTH (MB)   RECORD NAMES
              1      18       37.94       500      610      700      900      950      970     1000      129      960     1100   
                                          VAR    BASINP    GEOM    SYMINP    ZMAT    AOBASIS   BASIS     P2S    ABASIS      S 
                                         1400     1410     1200     1210     1080     1600     1650     1700   
                                           T        V       H0       H01     AOSYM     SMH    MOLCAS    OPER   

              2       4        8.12       700     1000      520     2100   
                                         GEOM     BASIS   MCVARS     RHF  

 PROGRAMS   *        TOTAL   CCSD(T)     DF-HF       INT
 CPU TIMES  *     51594.49  51526.09     67.10      1.20
 REAL TIME  *     72809.78 SEC
 DISK USED  *       184.99 GB
 **********************************************************************************************************************************

 DF-CCSD(T)/aug-cc-pVTZ energy=   -339.962008649503

      DF-CCSD(T)           DF-HF
   -339.96200865   -338.48251031
 **********************************************************************************************************************************
 Molpro calculation terminated
