
 Primary working directories    : /var/tmp/pbs.367950.bp1/molpro.FOWXjVZAtB
 Secondary working directories  : /var/tmp/pbs.367950.bp1/molpro.FOWXjVZAtB
 Wavefunction directory         : /home/lb17101/molpro_test/inp/
 Main file repository           : /home/lb17101/molpro_test/inp/

 id        : uob

 Nodes                         nprocs
 bp1-01-09-02.data.bp.acrc.priv    1

 Using customized tuning parameters: mindgm=1; mindgv=20; mindgc=4; mindgr=1; noblas=0; minvec=7
 default implementation of scratch files=df  


 Variables initialized (934), CPU time= 0.01 sec
 geomtyp=xyz
 nosym
 noorient
 geometry={
  C       1.209494486838      -0.594067637273      -0.220944498536
  C       0.649649662390       0.764586301374       0.281690590359
  C      -0.256771071411       1.777418475686       0.145602462862
  C      -1.248330897646      -0.537389786425      -0.272322111079
  C      -0.062008111284      -0.709580046645       0.590899991165
  H       1.285472312426      -1.533566758604      -1.009376329180
  H       1.776096789214      -1.029306706313       0.727379072851
  H       1.267584276295       1.613410265834       0.915664072665
  H       0.730982669444       3.140024504149      -0.886177905847
  H      -1.492092542948       0.658005224943       0.041440526366
  H      -2.139951671765      -0.840038056673       0.548309002421
  H      -0.765018983945      -1.058536989353      -1.214271932322
  H       0.382116264486      -2.322384567122       0.660364934896
 }
 basis=avtz
 df-hf
 df-ccsd(t)
 Commands  initialized (763), CPU time= 0.01 sec, 617 directives.
 Default parameters read. Elapsed time= 0.08 sec

 Checking input...
 Passed
1


                                         ***  PROGRAM SYSTEM MOLPRO  ***
                                       Copyright, TTI GmbH Stuttgart, 2015
                                    Version 2019.2 linked Oct 25 2019 22:50:27


 **********************************************************************************************************************************
 LABEL *                                                                                 
  64 bit serial version                                                                  DATE: 23-Sep-20          TIME: 21:29:59  
 **********************************************************************************************************************************

 SHA1:             8dbd9ae1082e4ce945b0f27595c9eb2d4aa09004
 **********************************************************************************************************************************
 SETTING GEOMTYP        =    XYZ

 Variable memory set to 4096000000 words,  buffer space 

 ZSYMEL=NOSYM

 SETTING BASIS          =    AVTZ


 Recomputing integrals since basis changed


 Using spherical harmonics

 Library entry C      S aug-cc-pVTZ          selected for orbital group  1
 Library entry C      P aug-cc-pVTZ          selected for orbital group  1
 Library entry C      D aug-cc-pVTZ          selected for orbital group  1
 Library entry C      F aug-cc-pVTZ          selected for orbital group  1
 Library entry H      S aug-cc-pVTZ          selected for orbital group  2
 Library entry H      P aug-cc-pVTZ          selected for orbital group  2
 Library entry H      D aug-cc-pVTZ          selected for orbital group  2


 PROGRAM * SEWARD (Integral evaluation for generally contracted gaussian basis sets)     Author: Roland Lindh, 1990

 Geometry written to block  1 of record 700


 Point group  C1  



 ATOMIC COORDINATES

 NR  ATOM    CHARGE       X              Y              Z

   1  C       6.00    2.285613329   -1.122625134   -0.417524591
   2  C       6.00    1.227659939    1.444858708    0.532318068
   3  C       6.00   -0.485227002    3.358834128    0.275148778
   4  C       6.00   -2.359003509   -1.015519518   -0.514614208
   5  C       6.00   -0.117178348   -1.340911952    1.116639150
   6  H       1.00    2.429190611   -2.898021167   -1.907444819
   7  H       1.00    3.356336502   -1.945107773    1.374547236
   8  H       1.00    2.395387122    3.048903529    1.730354319
   9  H       1.00    1.381357047    5.933786337   -1.674633540
  10  H       1.00   -2.819646259    1.243449664    0.078311245
  11  H       1.00   -4.043922579   -1.587441861    1.036153846
  12  H       1.00   -1.445676360   -2.000345003   -2.294641393
  13  H       1.00    0.722095088   -4.388670788    1.247908869

 Bond lengths in Bohr (Angstrom)

 1-2  2.934866220  1-5  2.859145915  1-6  2.322177383  1-7  2.243757393  2-3  2.581360033
     ( 1.553064321)     ( 1.512994861)     ( 1.228843351)     ( 1.187345279)     ( 1.365996903)

  2- 5  3.148100906   2- 8  2.317722464   4- 5  2.791531445   4-10  2.380481905   4-11  2.360281550
       ( 1.665903257)       ( 1.226485909)       ( 1.477214824)       ( 1.259696775)       ( 1.249007208)

  4-12  2.229920289
       ( 1.180022999)

 Bond angles

  1-2-3  148.82616300   1-2-5   55.93934402   1-2-8  126.23636556   1-5-2   58.25359931

  1-5-4  110.63691379   2-1-5   65.80705667   2-1-6  153.99722783   2-1-7  103.54503317

  2-5-4   97.55380009   3-2-5  113.02588933   3-2-8   82.68447689   5-1-6  109.74672873

  5- 1- 7   86.81756611   5- 2- 8  137.02995126   5- 4-10   96.91900515   5- 4-11   99.27113285

  5- 4-12   94.93685723   6- 1- 7  101.69412311  10- 4-11   85.87991455  10- 4-12  134.20121027

 11- 4-12  135.22174186

 NUCLEAR CHARGE:                   38
 NUMBER OF PRIMITIVE AOS:         551
 NUMBER OF SYMMETRY AOS:          490
 NUMBER OF CONTRACTIONS:          414   (  414A   )
 NUMBER OF CORE ORBITALS:           5   (    5A   )
 NUMBER OF VALENCE ORBITALS:       28   (   28A   )


 NUCLEAR REPULSION ENERGY  163.11744367


 Eigenvalues of metric

         1 0.800E-05 0.121E-04 0.136E-04 0.158E-04 0.192E-04 0.266E-04 0.318E-04 0.343E-04


 OPERATOR DM      FOR CENTER  0  COORDINATES:    0.000000    0.000000    0.000000


 **********************************************************************************************************************************
 DATASETS  * FILE   NREC   LENGTH (MB)   RECORD NAMES
              1      18       36.46       500      610      700      900      950      970     1000      129      960     1100   
                                          VAR    BASINP    GEOM    SYMINP    ZMAT    AOBASIS   BASIS     P2S    ABASIS      S 
                                         1400     1410     1200     1210     1080     1600     1650     1700   
                                           T        V       H0       H01     AOSYM     SMH    MOLCAS    OPER   

 PROGRAMS   *        TOTAL       INT
 CPU TIMES  *         1.21      1.12
 REAL TIME  *         4.63 SEC
 DISK USED  *        37.06 MB
 **********************************************************************************************************************************


 PROGRAM * RHF-SCF (CLOSED SHELL)       Authors: W. Meyer, H.-J. Werner


 NUMBER OF ELECTRONS:      19+   19-    SPACE SYMMETRY=1    SPIN SYMMETRY: Singlet 
 CONVERGENCE THRESHOLDS:    1.00E-05 (Density)    1.00E-07 (Energy)
 INTEGRAL THRESHOLDS:       1.00E-11 (Initial)    1.00E-11 (Final)
 MAX. NUMBER OF ITERATIONS:       60
 INTERPOLATION TYPE:            DIIS
 INTERPOLATION STEPS:              2 (START)      1 (STEP)
 LEVEL SHIFTS:                  0.00 (CLOSED)  0.00 (OPEN) 




 Basis set AUG-CC-PVTZ/JKFIT generated.  Number of basis functions:   888 

 Orbital guess generated from atomic densities. Full valence occupancy:   33
 Using density fitting in orbital guess

 Coulomb and exchange fitting
 Thresholds for fitting:       THRAO_COUL= 1.0D-14    THRAO_EXCH= 1.0D-12    THRMO= 1.0D-11    THRPROD= 1.0D-11    THRASM= 1.0D-11
                               THR2HLF=    1.0D-11

 Molecular orbital dump at record        2100.2

 Initial occupancy:  19

 ITERATION   DDIFF            GRAD            ENERGY        2-EL.EN.            DIPOLE MOMENTS         DIIS   CPU(IT)  CPU(TOT)  ORB.
    1      0.000D+00      0.000D+00      -193.27458443    453.830302    1.37686   -1.06876   -0.11027    0      3.0      6.4     start
    2      0.000D+00      0.231D-02      -193.34098865    448.058923    0.20047   -0.93684    0.12983    1      3.0      9.4     diag
    3      0.333D-02      0.138D-02      -193.35836457    451.701552    0.69024   -0.81777   -0.07114    2      3.0     12.4     diag
    4      0.132D-02      0.518D-03      -193.36350645    450.558538    0.52920   -0.87789    0.04853    3      2.8     15.2     diag
    5      0.724D-03      0.170D-03      -193.36412047    450.631531    0.50474   -0.85208    0.00972    4      2.8     17.9     diag
    6      0.248D-03      0.710D-04      -193.36426591    450.601651    0.50196   -0.85282    0.02841    5      2.7     20.6     diag
    7      0.142D-03      0.228D-04      -193.36428275    450.600658    0.49788   -0.85289    0.02778    6      2.9     23.5     diag
    8      0.443D-04      0.933D-05      -193.36428598    450.599445    0.49769   -0.85338    0.02880    7      3.0     26.5     diag
    9      0.216D-04      0.394D-05      -193.36428651    450.599263    0.49650   -0.85262    0.02964    8      2.8     29.4     diag
   10      0.754D-05      0.178D-05      -193.36428662    450.598748    0.49636   -0.85322    0.02960    9      2.8     32.1     orth
   11      0.422D-05      0.580D-06      -193.36428664    450.598495    0.49626   -0.85322    0.02974    9      2.8     34.9     diag
   12      0.147D-05      0.200D-06      -193.36428664    450.598757    0.49625   -0.85326    0.02972    0      2.8     37.8     orth

 Final occupancy:  19

 !RHF STATE  1.1 Energy              -193.364286638019
 Nuclear energy                       163.11744367
 One-electron energy                 -581.78110868
 Two-electron energy                  225.29937838
 Virial quotient                       -1.00633299
 !RHF STATE  1.1 Dipole moment          0.49624510    -0.85326427     0.02972485
 Dipole moment /Debye                   1.26124661    -2.16863939     0.07554809

 Orbital energies:

         1.1          2.1          3.1          4.1          5.1          6.1          7.1          8.1          9.1         10.1
    -11.357992   -11.339336   -11.303368   -11.302274   -11.271995    -1.195126    -1.029058    -0.961995    -0.735170    -0.677006

        11.1         12.1         13.1         14.1         15.1         16.1         17.1         18.1         19.1         20.1
     -0.655899    -0.648536    -0.558297    -0.507186    -0.489210    -0.459655    -0.411609    -0.365596    -0.321868    -0.002720

        21.1
      0.026825


 HOMO     19.1    -0.321868 =      -8.7585eV
 LUMO     20.1    -0.002720 =      -0.0740eV
 LUMO-HOMO         0.319148 =       8.6845eV


 **********************************************************************************************************************************
 DATASETS  * FILE   NREC   LENGTH (MB)   RECORD NAMES
              1      18       36.46       500      610      700      900      950      970     1000      129      960     1100   
                                          VAR    BASINP    GEOM    SYMINP    ZMAT    AOBASIS   BASIS     P2S    ABASIS      S 
                                         1400     1410     1200     1210     1080     1600     1650     1700   
                                           T        V       H0       H01     AOSYM     SMH    MOLCAS    OPER   

              2       4        7.14       700     1000      520     2100   
                                         GEOM     BASIS   MCVARS     RHF  

 PROGRAMS   *        TOTAL     DF-HF       INT
 CPU TIMES  *        39.00     37.78      1.12
 REAL TIME  *        44.37 SEC
 DISK USED  *       141.85 MB
 **********************************************************************************************************************************


 PROGRAM * CCSD (Closed-shell coupled cluster)     Authors: C. Hampel, H.-J. Werner, 1991, M. Deegan, P.J. Knowles, 1992

                    Density fitting coupled cluster methods (ITF), W. Gyorffy, 2015


 Basis set AUG-CC-PVTZ/MP2FIT generated. Number of basis functions:   898 

 Convergence thresholds:  THRVAR = 1.00D-08  THRDEN = 1.00D-06

 CCSD(T)     terms to be evaluated (factor= 1.000)


 Number of core orbitals:           5 (   5 )
 Number of closed-shell orbitals:  14 (  14 )
 Number of external orbitals:     395 ( 395 )

 Molecular orbitals read from record     2100.2  Type=RHF/CANONICAL (state 1.1)
 Enter DF-CCSD [ITF]

  Reference energy:                  -193.364286638019

  MP2 correlation energy:              -0.925891873555
  MP2 total energy:                  -194.290178511575

 Transformed 3-ext integrals are computed and stored!

 Transformed 4-ext integrals are computed and stored!

 ITER.      SQ.NORM     CORR.ENERGY   TOTAL ENERGY   ENERGY CHANGE        DEN1      VAR(S)    VAR(P)  DIIS     TIME
   1      1.39743764    -0.95922885  -194.32351549    -0.03333698     0.00549381  1.18e-02  1.13e-02  1  1   785.86
   2      1.45110875    -0.96551567  -194.32980231    -0.00628682    -0.03417539  8.62e-04  3.18e-03  2  2  1562.75
   3      1.47141559    -0.96712347  -194.33141011    -0.00160780    -0.00352634  2.20e-04  7.29e-04  3  3  2342.94
   4      1.49121257    -0.96761485  -194.33190149    -0.00049138    -0.00594871  1.90e-05  2.19e-04  4  4  3107.77
   5      1.50270833    -0.96757340  -194.33186004     0.00004145    -0.00221244  3.14e-06  3.72e-05  5  5  3883.02
   6      1.50769369    -0.96744519  -194.33173183     0.00012821    -0.00081842  1.07e-06  6.34e-06  6  0  4657.12
   7      1.50955047    -0.96739579  -194.33168243     0.00004940    -0.00024704  1.22e-07  1.02e-06  6  1  5433.12
   8      1.51001855    -0.96738145  -194.33166808     0.00001435    -0.00004538  3.30e-08  2.25e-07  6  2  6204.02
   9      1.51013408    -0.96737937  -194.33166601     0.00000208    -0.00000386  9.64e-09  6.70e-08  6  3  6978.77
  10      1.51016543    -0.96737952  -194.33166616    -0.00000015    -0.00000357  2.21e-09  1.65e-08  6  4  7756.75
  11      1.51019302    -0.96738013  -194.33166677    -0.00000061    -0.00000092  3.91e-10  3.59e-09        8531.77

 Norm of t1 vector:      0.17417887     S-energy:     -0.00000057   T1 diagnostic:  0.02327563

 Time per iteration:                    775.63 sec

 RESULTS
 =======

  Reference energy:                  -193.364286638019
  CCSD correlation energy:             -0.967380131738
  CCSD total energy:                 -194.331666769758

  Triples (T) contribution:            -0.063263037872
  Total correlation energy:            -1.030643169611
  CCSD[T] total energy:              -194.397931952379
 !CCSD(T) total energy:              -194.394929807630





 **********************************************************************************************************************************
 DATASETS  * FILE   NREC   LENGTH (MB)   RECORD NAMES
              1      18       36.46       500      610      700      900      950      970     1000      129      960     1100   
                                          VAR    BASINP    GEOM    SYMINP    ZMAT    AOBASIS   BASIS     P2S    ABASIS      S 
                                         1400     1410     1200     1210     1080     1600     1650     1700   
                                           T        V       H0       H01     AOSYM     SMH    MOLCAS    OPER   

              2       4        7.14       700     1000      520     2100   
                                         GEOM     BASIS   MCVARS     RHF  

 PROGRAMS   *        TOTAL   CCSD(T)     DF-HF       INT
 CPU TIMES  *     15543.38  15504.38     37.78      1.12
 REAL TIME  *     18005.75 SEC
 DISK USED  *       121.99 GB
 **********************************************************************************************************************************

 DF-CCSD(T)/aug-cc-pVTZ energy=   -194.394929807630

      DF-CCSD(T)           DF-HF
   -194.39492981   -193.36428664
 **********************************************************************************************************************************
 Molpro calculation terminated
