
 Primary working directories    : /var/tmp/pbs.368010.bp1/molpro.umJc37wZQr
 Secondary working directories  : /var/tmp/pbs.368010.bp1/molpro.umJc37wZQr
 Wavefunction directory         : /home/lb17101/molpro_test/inp/
 Main file repository           : /home/lb17101/molpro_test/inp/

 id        : uob

 Nodes                         nprocs
 bp1-11-04-02.data.bp.acrc.priv    1

 Using customized tuning parameters: mindgm=1; mindgv=20; mindgc=4; mindgr=1; noblas=0; minvec=7
 default implementation of scratch files=df  


 Variables initialized (934), CPU time= 0.00 sec
 geomtyp=xyz
 nosym
 noorient
 geometry={
  C       1.209494486838      -0.594067637273      -0.220944498536
  C       0.649649662390       0.764586301374       0.281690590359
  C      -0.256771071411       1.777418475686       0.145602462862
  C      -1.248330897646      -0.537389786425      -0.272322111079
  C      -0.062008111284      -0.709580046645       0.590899991165
  H       1.285472312426      -1.533566758604      -1.009376329180
  H       1.776096789214      -1.029306706313       0.727379072851
  H       1.267584276295       1.613410265834       0.915664072665
  H       0.730982669444       3.140024504149      -0.886177905847
  H      -1.492092542948       0.658005224943       0.041440526366
  H      -2.139951671765      -0.840038056673       0.548309002421
  H      -0.765018983945      -1.058536989353      -1.214271932322
  H       0.382116264486      -2.322384567122       0.660364934896
 }
 basis=vtz-f12
 df-hf
 df-ccsd-f12,cabs_singles=1
 Commands  initialized (763), CPU time= 0.02 sec, 617 directives.
 Default parameters read. Elapsed time= 0.10 sec

 Checking input...
 Passed
1


                                         ***  PROGRAM SYSTEM MOLPRO  ***
                                       Copyright, TTI GmbH Stuttgart, 2015
                                    Version 2019.2 linked Oct 25 2019 22:50:27


 **********************************************************************************************************************************
 LABEL *                                                                                 
  64 bit serial version                                                                  DATE: 24-Sep-20          TIME: 13:19:22  
 **********************************************************************************************************************************

 SHA1:             8dbd9ae1082e4ce945b0f27595c9eb2d4aa09004
 **********************************************************************************************************************************
 SETTING GEOMTYP        =    XYZ

 Variable memory set to 4096000000 words,  buffer space 

 ZSYMEL=NOSYM

 SETTING BASIS          =    VTZ-F12


 Recomputing integrals since basis changed


 Using spherical harmonics

 Library entry C      S cc-pVTZ-F12          selected for orbital group  1
 Library entry C      P cc-pVTZ-F12          selected for orbital group  1
 Library entry C      D cc-pVTZ-F12          selected for orbital group  1
 Library entry C      F cc-pVTZ-F12          selected for orbital group  1
 Library entry H      S cc-pVTZ-F12          selected for orbital group  2
 Library entry H      P cc-pVTZ-F12          selected for orbital group  2
 Library entry H      D cc-pVTZ-F12          selected for orbital group  2


 PROGRAM * SEWARD (Integral evaluation for generally contracted gaussian basis sets)     Author: Roland Lindh, 1990

 Geometry written to block  1 of record 700


 Point group  C1  



 ATOMIC COORDINATES

 NR  ATOM    CHARGE       X              Y              Z

   1  C       6.00    2.285613329   -1.122625134   -0.417524591
   2  C       6.00    1.227659939    1.444858708    0.532318068
   3  C       6.00   -0.485227002    3.358834128    0.275148778
   4  C       6.00   -2.359003509   -1.015519518   -0.514614208
   5  C       6.00   -0.117178348   -1.340911952    1.116639150
   6  H       1.00    2.429190611   -2.898021167   -1.907444819
   7  H       1.00    3.356336502   -1.945107773    1.374547236
   8  H       1.00    2.395387122    3.048903529    1.730354319
   9  H       1.00    1.381357047    5.933786337   -1.674633540
  10  H       1.00   -2.819646259    1.243449664    0.078311245
  11  H       1.00   -4.043922579   -1.587441861    1.036153846
  12  H       1.00   -1.445676360   -2.000345003   -2.294641393
  13  H       1.00    0.722095088   -4.388670788    1.247908869

 Bond lengths in Bohr (Angstrom)

 1-2  2.934866220  1-5  2.859145915  1-6  2.322177383  1-7  2.243757393  2-3  2.581360033
     ( 1.553064321)     ( 1.512994861)     ( 1.228843351)     ( 1.187345279)     ( 1.365996903)

  2- 5  3.148100906   2- 8  2.317722464   4- 5  2.791531445   4-10  2.380481905   4-11  2.360281550
       ( 1.665903257)       ( 1.226485909)       ( 1.477214824)       ( 1.259696775)       ( 1.249007208)

  4-12  2.229920289
       ( 1.180022999)

 Bond angles

  1-2-3  148.82616300   1-2-5   55.93934402   1-2-8  126.23636556   1-5-2   58.25359931

  1-5-4  110.63691379   2-1-5   65.80705667   2-1-6  153.99722783   2-1-7  103.54503317

  2-5-4   97.55380009   3-2-5  113.02588933   3-2-8   82.68447689   5-1-6  109.74672873

  5- 1- 7   86.81756611   5- 2- 8  137.02995126   5- 4-10   96.91900515   5- 4-11   99.27113285

  5- 4-12   94.93685723   6- 1- 7  101.69412311  10- 4-11   85.87991455  10- 4-12  134.20121027

 11- 4-12  135.22174186

 NUCLEAR CHARGE:                   38
 NUMBER OF PRIMITIVE AOS:         528
 NUMBER OF SYMMETRY AOS:          475
 NUMBER OF CONTRACTIONS:          409   (  409A   )
 NUMBER OF CORE ORBITALS:           5   (    5A   )
 NUMBER OF VALENCE ORBITALS:       28   (   28A   )


 NUCLEAR REPULSION ENERGY  163.11744367


 Eigenvalues of metric

         1 0.315E-04 0.430E-04 0.567E-04 0.840E-04 0.990E-04 0.123E-03 0.137E-03 0.158E-03


 OPERATOR DM      FOR CENTER  0  COORDINATES:    0.000000    0.000000    0.000000


 **********************************************************************************************************************************
 DATASETS  * FILE   NREC   LENGTH (MB)   RECORD NAMES
              1      18       36.32       500      610      700      900      950      970     1000      129      960     1100   
                                          VAR    BASINP    GEOM    SYMINP    ZMAT    AOBASIS   BASIS     P2S    ABASIS      S 
                                         1400     1410     1200     1210     1080     1600     1650     1700   
                                           T        V       H0       H01     AOSYM     SMH    MOLCAS    OPER   

 PROGRAMS   *        TOTAL       INT
 CPU TIMES  *         1.07      0.93
 REAL TIME  *         2.98 SEC
 DISK USED  *        36.91 MB
 **********************************************************************************************************************************


 PROGRAM * RHF-SCF (CLOSED SHELL)       Authors: W. Meyer, H.-J. Werner


 NUMBER OF ELECTRONS:      19+   19-    SPACE SYMMETRY=1    SPIN SYMMETRY: Singlet 
 CONVERGENCE THRESHOLDS:    1.00E-05 (Density)    1.00E-07 (Energy)
 INTEGRAL THRESHOLDS:       1.00E-11 (Initial)    1.00E-11 (Final)
 MAX. NUMBER OF ITERATIONS:       60
 INTERPOLATION TYPE:            DIIS
 INTERPOLATION STEPS:              2 (START)      1 (STEP)
 LEVEL SHIFTS:                  0.00 (CLOSED)  0.00 (OPEN) 




 Basis set AUG-CC-PVTZ/JKFIT generated.  Number of basis functions:   888 

 Orbital guess generated from atomic densities. Full valence occupancy:   33
 Using density fitting in orbital guess

 Coulomb and exchange fitting
 Thresholds for fitting:       THRAO_COUL= 1.0D-14    THRAO_EXCH= 1.0D-12    THRMO= 1.0D-11    THRPROD= 1.0D-11    THRASM= 1.0D-11
                               THR2HLF=    1.0D-11

 Molecular orbital dump at record        2100.2

 Initial occupancy:  19

 ITERATION   DDIFF            GRAD            ENERGY        2-EL.EN.            DIPOLE MOMENTS         DIIS   CPU(IT)  CPU(TOT)  ORB.
    1      0.000D+00      0.000D+00      -193.28293230    453.981600    1.38523   -1.05626   -0.12059    0      3.2      7.2     start
    2      0.000D+00      0.237D-02      -193.34983127    447.988704    0.19607   -0.93698    0.13290    1      3.3     10.5     diag
    3      0.291D-02      0.143D-02      -193.36789242    451.740319    0.69093   -0.81546   -0.07415    2      2.9     13.4     diag
    4      0.119D-02      0.527D-03      -193.37310561    450.600033    0.53173   -0.87608    0.04680    3      2.6     16.0     diag
    5      0.650D-03      0.173D-03      -193.37372910    450.666008    0.50657   -0.85067    0.00811    4      2.5     18.5     diag
    6      0.225D-03      0.725D-04      -193.37387672    450.637503    0.50360   -0.85179    0.02706    5      2.6     21.1     diag
    7      0.136D-03      0.234D-04      -193.37389393    450.636214    0.49952   -0.85166    0.02635    6      2.6     23.6     diag
    8      0.437D-04      0.960D-05      -193.37389724    450.635533    0.49933   -0.85226    0.02740    7      2.5     26.2     diag
    9      0.206D-04      0.411D-05      -193.37389779    450.635136    0.49816   -0.85147    0.02823    8      2.5     28.7     diag
   10      0.804D-05      0.184D-05      -193.37389791    450.634699    0.49800   -0.85207    0.02819    9      2.6     31.3     orth
   11      0.436D-05      0.608D-06      -193.37389792    450.634445    0.49790   -0.85207    0.02833    9      2.5     33.8     diag
   12      0.160D-05      0.205D-06      -193.37389792    450.634689    0.49788   -0.85212    0.02832    0      2.5     36.4     orth

 Final occupancy:  19

 !RHF STATE  1.1 Energy              -193.373897920262
 Nuclear energy                       163.11744367
 One-electron energy                 -581.80868602
 Two-electron energy                  225.31734443
 Virial quotient                       -1.00601526
 !RHF STATE  1.1 Dipole moment          0.49788453    -0.85211667     0.02831523
 Dipole moment /Debye                   1.26541336    -2.16572269     0.07196541

 Orbital energies:

         1.1          2.1          3.1          4.1          5.1          6.1          7.1          8.1          9.1         10.1
    -11.357208   -11.338219   -11.302160   -11.301154   -11.271033    -1.194850    -1.028850    -0.961885    -0.735203    -0.677012

        11.1         12.1         13.1         14.1         15.1         16.1         17.1         18.1         19.1         20.1
     -0.656004    -0.648672    -0.558466    -0.507299    -0.489458    -0.459862    -0.411826    -0.365771    -0.322067    -0.000598

        21.1
      0.035966


 HOMO     19.1    -0.322067 =      -8.7639eV
 LUMO     20.1    -0.000598 =      -0.0163eV
 LUMO-HOMO         0.321469 =       8.7476eV


 **********************************************************************************************************************************
 DATASETS  * FILE   NREC   LENGTH (MB)   RECORD NAMES
              1      18       36.32       500      610      700      900      950      970     1000      129      960     1100   
                                          VAR    BASINP    GEOM    SYMINP    ZMAT    AOBASIS   BASIS     P2S    ABASIS      S 
                                         1400     1410     1200     1210     1080     1600     1650     1700   
                                           T        V       H0       H01     AOSYM     SMH    MOLCAS    OPER   

              2       4        7.04       700     1000      520     2100   
                                         GEOM     BASIS   MCVARS     RHF  

 PROGRAMS   *        TOTAL     DF-HF       INT
 CPU TIMES  *        37.49     36.42      0.93
 REAL TIME  *        40.38 SEC
 DISK USED  *       140.31 MB
 **********************************************************************************************************************************


 PROGRAM * CCSD (Closed-shell coupled cluster)     Authors: C. Hampel, H.-J. Werner, 1991, M. Deegan, P.J. Knowles, 1992

                    Density fitting coupled cluster methods (ITF), W. Gyorffy, 2015

                                  CCSD-F12 implementation by  H.-J. Werner, 2007

                   Density fitting integral evaluation by F.R. Manby, 2003,2007, G. Knizia, 2010


 Basis set CC-PVTZ-F12/OPTRI generated.  Number of basis functions:   703 

 Generating union of orbital basis set VTZ-F12 and corresponding OPTRI basis

 Basis set CC-PVTZ-F12_CABS generated.   Number of basis functions:   1112 
 Basis set AUG-CC-PVTZ/MP2FIT generated. Number of basis functions:   898 

 Convergence thresholds:  THRVAR = 1.00D-08  THRDEN = 1.00D-06

 Number of core orbitals:           5 (   5 )
 Number of closed-shell orbitals:  14 (  14 )
 Number of external orbitals:     390 ( 390 )

 Molecular orbitals read from record     2100.2  Type=RHF/CANONICAL (state 1.1)
 Ansatz: F12/3*C(FIX,HY1)
 F12b method
 Enter DF-CCSD-F12 [ITF]

 Geminal basis:    OPTFULL  GEM_TYPE=SLATER  BETA=1.0  NGEM=6

 Optimizing Gaussian exponents for each gem_beta

 Geminal optimization for beta= 1.0000
 Weight function:   m=0, omega= 1.4646

 Augmented Hessian optimization of geminal fit. Trust ratio= 0.40000
 Convergence reached after   2 iterations. Final gradient= 8.53D-16, Step= 4.26D-06, Delta= 1.28D-09

 Alpha:                 0.19532     0.81920     2.85917     9.50073    35.69989   197.79328
 Coeff:                 0.27070     0.30552     0.18297     0.10986     0.06810     0.04224



  Reference energy:                  -193.373897920262
  MP2 correlation energy:              -0.938419995431

  !MP2 total energy:                 -194.312317915692

  DF-MP2-F12 energy corrections:
  ==============================
  Approx.                                    Total
  DF-MP2-F12/3*C(DX,FIX):              -0.063345592325
  DF-MP2-F12/3*C(FIX):                 -0.062423121715

  DF-MP2-F12 correlation energies:
  ================================
  Approx.                                    Ecorr
  DF-MP2:                              -0.938419995431
  DF-MP2-F12/3*C(DX,FIX):              -1.001765587756
  DF-MP2-F12/3*C(FIX):                 -1.000843117146

  Reference energy:                  -193.373897920262
  MP2-F12 correlation energy:          -1.000843117146

  !MP2-F12 total energy:             -194.374741037407
  MP2 correlation energy:              -0.938419995431
  PT2 correlation energy:              -0.938419995573

 Transformed 3-ext integrals are computed and stored!

 Transformed 4-ext integrals are computed and stored!

 ITER.      SQ.NORM     CORR.ENERGY   TOTAL ENERGY   ENERGY CHANGE        DEN1      VAR(S)    VAR(P)  DIIS     TIME
   1      1.39067405    -0.95564343  -194.32954135    -0.01722343     0.02199391  1.31e-02  1.10e-02  1  1   763.07
   2      1.44367030    -0.96093993  -194.33483785    -0.00529650    -0.03488742  1.00e-03  3.19e-03  2  2  1482.07
   3      1.46305071    -0.96298171  -194.33687963    -0.00204178    -0.00267843  2.06e-04  7.45e-04  3  3  2222.25
   4      1.48324441    -0.96347124  -194.33736917    -0.00048954    -0.00597952  1.78e-05  2.23e-04  4  4  2968.95
   5      1.49476078    -0.96349742  -194.33739534    -0.00002618    -0.00219050  3.29e-06  3.92e-05  5  5  3705.93
   6      1.50001997    -0.96339131  -194.33728923     0.00010612    -0.00086587  1.03e-06  6.58e-06  6  0  4408.88
   7      1.50194118    -0.96334913  -194.33724705     0.00004218    -0.00025336  1.28e-07  1.07e-06  6  1  5120.26
   8      1.50242854    -0.96333813  -194.33723605     0.00001100    -0.00004702  3.53e-08  2.42e-07  6  2  5825.60
   9      1.50255328    -0.96333649  -194.33723441     0.00000164    -0.00000463  1.00e-08  7.10e-08  6  3  6476.07
  10      1.50258288    -0.96333674  -194.33723466    -0.00000025    -0.00000377  2.26e-09  1.71e-08  6  4  7139.20
  11      1.50261179    -0.96333747  -194.33723539    -0.00000073    -0.00000102  4.17e-10  3.92e-09        7866.48

 Norm of t1 vector:      0.17920874     S-energy:     -0.00000057   T1 diagnostic:  0.02394778

 Time per iteration:                    715.15 sec


  F12b       energy corrections:
  ==============================
  CC-F12b:                              0.014063470305
 RESULTS
 =======

  Reference energy:                  -193.373897920262
  CCSD correlation energy:             -0.963337470237
 !CCSD total energy:                 -194.337235390499
  DF-MP2-F12 energy corrections:
  ==============================
  Approx.                                    Total
  DF-MP2-F12/3*C(DX,FIX):              -0.063345592325
  DF-MP2-F12/3*C(FIX):                 -0.062423121715

  DF-MP2-F12 correlation energies:
  ================================
  Approx.                                    Ecorr
  DF-MP2:                              -0.938419995431
  DF-MP2-F12/3*C(DX,FIX):              -1.001765587756
  DF-MP2-F12/3*C(FIX):                 -1.000843117146

  Reference energy:                  -193.373897920262
  MP2-F12 correlation energy:          -1.000843117146

  !MP2-F12 total energy:             -194.374741037407

  CCSD-F12 correlation energies:
  ================================
  Approx.                                    Ecorr
  CCSD:                                -0.963337470237
  CCSD-F12/3*C(DX,FIX):                -1.026683062562
  CCSD-F12/3*C(FIX):                   -1.011697121647

  Reference energy:                  -193.373897920262
  CCSD-F12 correlation energy:         -1.011697121647

  !CCSD-F12 total energy:            -194.385595041909





 **********************************************************************************************************************************
 DATASETS  * FILE   NREC   LENGTH (MB)   RECORD NAMES
              1      19       36.34       500      610      700      900      950      970     1000      129      960     1100   
                                          VAR    BASINP    GEOM    SYMINP    ZMAT    AOBASIS   BASIS     P2S    ABASIS      S 
                                         1400     1410     1200     1210     1080     1600     1650     1700      960(1)
                                           T        V       H0       H01     AOSYM     SMH    MOLCAS    OPER    ABASIS    

              2       4        7.04       700     1000      520     2100   
                                         GEOM     BASIS   MCVARS     RHF  

 PROGRAMS   *        TOTAL  CCSD-F12     DF-HF       INT
 CPU TIMES  *     10862.39  10824.90     36.42      0.93
 REAL TIME  *     12064.21 SEC
 DISK USED  *       235.07 GB
 **********************************************************************************************************************************

 DF-CCSD-F12/cc-pVTZ-F12 energy=   -194.385595041909

     DF-CCSD-F12           DF-HF
   -194.38559504   -193.37389792
 **********************************************************************************************************************************
 Molpro calculation terminated
