
 Primary working directories    : /var/tmp/pbs.368018.bp1/molpro.AZLJxc4Tlt
 Secondary working directories  : /var/tmp/pbs.368018.bp1/molpro.AZLJxc4Tlt
 Wavefunction directory         : /home/lb17101/molpro_test/inp/
 Main file repository           : /home/lb17101/molpro_test/inp/

 id        : uob

 Nodes                         nprocs
 bp1-13-13-02.data.bp.acrc.priv    1

 Using customized tuning parameters: mindgm=1; mindgv=20; mindgc=4; mindgr=1; noblas=0; minvec=7
 default implementation of scratch files=df  


 Variables initialized (934), CPU time= 0.00 sec
 geomtyp=xyz
 nosym
 noorient
 geometry={
  C      -1.823639944849       0.283336659566       0.261829355759
  C      -0.511970621848      -0.450222548386       0.075378985519
  O      -0.001208675343      -0.316432936271      -1.250809645401
  C       0.652994988676       0.336895996758       0.666892416384
  O       2.376340260045      -0.606622188589      -0.658638614409
  H      -1.725774119799       1.314519063485      -0.251472831285
  H      -2.140804862933       0.452681772603       1.313688629466
  H      -2.644717465291      -0.206782854241      -0.323318442727
  H      -0.505595249154      -1.474461792874       0.376960730184
  H       1.373489331199      -0.736997440116      -1.057055937078
  H       0.756009475318       1.387826730146       0.287614648104
  H       1.396654971538      -0.110494175162       1.326100926326
  H       2.442470167856       0.319502233246      -1.064950524831
 }
 basis=vtz-f12
 df-hf
 df-ccsd-f12,cabs_singles=1
 Commands  initialized (763), CPU time= 0.01 sec, 617 directives.
 Default parameters read. Elapsed time= 0.08 sec

 Checking input...
 Passed
1


                                         ***  PROGRAM SYSTEM MOLPRO  ***
                                       Copyright, TTI GmbH Stuttgart, 2015
                                    Version 2019.2 linked Oct 25 2019 22:50:27


 **********************************************************************************************************************************
 LABEL *                                                                                 
  64 bit serial version                                                                  DATE: 24-Sep-20          TIME: 15:05:07  
 **********************************************************************************************************************************

 SHA1:             8dbd9ae1082e4ce945b0f27595c9eb2d4aa09004
 **********************************************************************************************************************************
 SETTING GEOMTYP        =    XYZ

 Variable memory set to 4096000000 words,  buffer space 

 ZSYMEL=NOSYM

 SETTING BASIS          =    VTZ-F12


 Recomputing integrals since basis changed


 Using spherical harmonics

 Library entry C      S cc-pVTZ-F12          selected for orbital group  1
 Library entry C      P cc-pVTZ-F12          selected for orbital group  1
 Library entry C      D cc-pVTZ-F12          selected for orbital group  1
 Library entry C      F cc-pVTZ-F12          selected for orbital group  1
 Library entry O      S cc-pVTZ-F12          selected for orbital group  2
 Library entry O      P cc-pVTZ-F12          selected for orbital group  2
 Library entry O      D cc-pVTZ-F12          selected for orbital group  2
 Library entry O      F cc-pVTZ-F12          selected for orbital group  2
 Library entry H      S cc-pVTZ-F12          selected for orbital group  5
 Library entry H      P cc-pVTZ-F12          selected for orbital group  5
 Library entry H      D cc-pVTZ-F12          selected for orbital group  5


 PROGRAM * SEWARD (Integral evaluation for generally contracted gaussian basis sets)     Author: Roland Lindh, 1990

 Geometry written to block  1 of record 700


 Point group  C1  



 ATOMIC COORDINATES

 NR  ATOM    CHARGE       X              Y              Z

   1  C       6.00   -3.446180046    0.535428688    0.494785774
   2  C       6.00   -0.967484259   -0.850797312    0.142445638
   3  O       8.00   -0.002284065   -0.597971586   -2.363687664
   4  C       6.00    1.233981689    0.636641166    1.260244022
   5  O       8.00    4.490632270   -1.146349798   -1.244646596
   6  H       1.00   -3.261240439    2.484081016   -0.475214779
   7  H       1.00   -4.045534877    0.855444572    2.482511723
   8  H       1.00   -4.997791686   -0.390762962   -0.610983308
   9  H       1.00   -0.955436551   -2.786328970    0.712352540
  10  H       1.00    2.595518671   -1.392723316   -1.997546219
  11  H       1.00    1.428650856    2.622612428    0.543512914
  12  H       1.00    2.639295387   -0.208803729    2.505967564
  13  H       1.00    4.615599685    0.603771717   -2.012464828

 Bond lengths in Bohr (Angstrom)

 1-2  2.861764996  1-6  2.184570810  1-7  2.100640576  1-8  2.118502990  2-3  2.697449979
     ( 1.514380819)     ( 1.156025088)     ( 1.111611121)     ( 1.121063503)     ( 1.427429056)

  2- 4  2.882429318   2- 9  2.017726895   4-11  2.120302200   4-12  2.059492851   5-10  2.054023687
       ( 1.525315907)       ( 1.067735091)       ( 1.122015604)       ( 1.089836683)       ( 1.086942526)

  5-13  1.915225054
       ( 1.013493452)

 Bond angles

  1-2-3  112.26611623   1-2-4  111.33425057   1-2-9  115.78906988   2-1-6  107.70347569

  2- 1- 7  115.93960065   2- 1- 8  110.99790714   2- 4-11  114.98473315   2- 4-12  122.94830653

  3-2-4   92.21445732   3-2-9  110.49895044   4-2-9  112.39075571   6-1-7  107.96405425

  6- 1- 8  102.72196539   7- 1- 8  110.58109735  10- 5-13   91.30977366  11- 4-12  121.75715431

 NUCLEAR CHARGE:                   42
 NUMBER OF PRIMITIVE AOS:         528
 NUMBER OF SYMMETRY AOS:          475
 NUMBER OF CONTRACTIONS:          409   (  409A   )
 NUMBER OF CORE ORBITALS:           5   (    5A   )
 NUMBER OF VALENCE ORBITALS:       28   (   28A   )


 NUCLEAR REPULSION ENERGY  185.62484681


 Eigenvalues of metric

         1 0.326E-04 0.504E-04 0.907E-04 0.126E-03 0.140E-03 0.150E-03 0.156E-03 0.182E-03


 OPERATOR DM      FOR CENTER  0  COORDINATES:    0.000000    0.000000    0.000000


 **********************************************************************************************************************************
 DATASETS  * FILE   NREC   LENGTH (MB)   RECORD NAMES
              1      18       36.33       500      610      700      900      950      970     1000      129      960     1100   
                                          VAR    BASINP    GEOM    SYMINP    ZMAT    AOBASIS   BASIS     P2S    ABASIS      S 
                                         1400     1410     1200     1210     1080     1600     1650     1700   
                                           T        V       H0       H01     AOSYM     SMH    MOLCAS    OPER   

 PROGRAMS   *        TOTAL       INT
 CPU TIMES  *         0.80      0.70
 REAL TIME  *         5.68 SEC
 DISK USED  *        36.92 MB
 **********************************************************************************************************************************


 PROGRAM * RHF-SCF (CLOSED SHELL)       Authors: W. Meyer, H.-J. Werner


 NUMBER OF ELECTRONS:      21+   21-    SPACE SYMMETRY=1    SPIN SYMMETRY: Singlet 
 CONVERGENCE THRESHOLDS:    1.00E-05 (Density)    1.00E-07 (Energy)
 INTEGRAL THRESHOLDS:       1.00E-11 (Initial)    1.00E-11 (Final)
 MAX. NUMBER OF ITERATIONS:       60
 INTERPOLATION TYPE:            DIIS
 INTERPOLATION STEPS:              2 (START)      1 (STEP)
 LEVEL SHIFTS:                  0.00 (CLOSED)  0.00 (OPEN) 




 Basis set AUG-CC-PVTZ/JKFIT generated.  Number of basis functions:   888 

 Orbital guess generated from atomic densities. Full valence occupancy:   33
 Using density fitting in orbital guess

 Coulomb and exchange fitting
 Thresholds for fitting:       THRAO_COUL= 1.0D-14    THRAO_EXCH= 1.0D-12    THRMO= 1.0D-11    THRPROD= 1.0D-11    THRASM= 1.0D-11
                               THR2HLF=    1.0D-11

 Molecular orbital dump at record        2100.2

 Initial occupancy:  21

 ITERATION   DDIFF            GRAD            ENERGY        2-EL.EN.            DIPOLE MOMENTS         DIIS   CPU(IT)  CPU(TOT)  ORB.
    1      0.000D+00      0.000D+00      -267.78342236    565.006892   -0.56554    1.64267    2.41842    0      2.6      5.4     start
    2      0.000D+00      0.417D-02      -267.85369792    558.559945   -0.56319    0.62464    0.76945    1      2.4      7.8     diag
    3      0.449D-02      0.331D-02      -267.92237907    562.014501   -0.49140    1.02958    1.77553    2      2.4     10.2     diag
    4      0.204D-02      0.583D-03      -267.92565855    561.774212   -0.53207    1.03233    1.66956    3      2.4     12.6     diag
    5      0.499D-03      0.270D-03      -267.92639300    561.744136   -0.51975    1.02053    1.71979    4      2.5     15.2     diag
    6      0.226D-03      0.883D-04      -267.92653990    561.749668   -0.52950    1.02576    1.72134    5      2.5     17.7     diag
    7      0.965D-04      0.334D-04      -267.92657544    561.739299   -0.52932    1.02730    1.72546    6      2.5     20.2     diag
    8      0.550D-04      0.129D-04      -267.92658092    561.742673   -0.53030    1.02848    1.72658    7      2.5     22.7     diag
    9      0.219D-04      0.488D-05      -267.92658186    561.743937   -0.52951    1.02894    1.72739    8      2.6     25.3     diag
   10      0.929D-05      0.199D-05      -267.92658202    561.743692   -0.52912    1.02905    1.72745    9      2.6     27.8     orth
   11      0.390D-05      0.863D-06      -267.92658206    561.744106   -0.52888    1.02920    1.72761    9      2.5     30.3     diag
   12      0.183D-05      0.472D-06      -267.92658206    561.743764   -0.52887    1.02919    1.72758    0      2.6     32.9     orth

 Final occupancy:  21

 !RHF STATE  1.1 Energy              -267.926582064073
 Nuclear energy                       185.62484681
 One-electron energy                 -734.42331088
 Two-electron energy                  280.87188201
 Virial quotient                       -1.00246369
 !RHF STATE  1.1 Dipole moment         -0.52887474     1.02919085     1.72758391
 Dipole moment /Debye                  -1.34417745     2.61577088     4.39079272

 Orbital energies:

         1.1          2.1          3.1          4.1          5.1          6.1          7.1          8.1          9.1         10.1
    -20.530571   -20.496677   -11.385711   -11.302490   -11.243250    -1.311283    -1.265481    -1.038651    -0.958568    -0.814455

        11.1         12.1         13.1         14.1         15.1         16.1         17.1         18.1         19.1         20.1
     -0.708373    -0.655608    -0.619233    -0.599481    -0.571552    -0.560134    -0.518861    -0.500567    -0.470059    -0.406823

        21.1         22.1         23.1
     -0.381947     0.009934     0.041570


 HOMO     21.1    -0.381947 =     -10.3933eV
 LUMO     22.1     0.009934 =       0.2703eV
 LUMO-HOMO         0.391881 =      10.6636eV


 **********************************************************************************************************************************
 DATASETS  * FILE   NREC   LENGTH (MB)   RECORD NAMES
              1      18       36.33       500      610      700      900      950      970     1000      129      960     1100   
                                          VAR    BASINP    GEOM    SYMINP    ZMAT    AOBASIS   BASIS     P2S    ABASIS      S 
                                         1400     1410     1200     1210     1080     1600     1650     1700   
                                           T        V       H0       H01     AOSYM     SMH    MOLCAS    OPER   

              2       4        7.04       700     1000      520     2100   
                                         GEOM     BASIS   MCVARS     RHF  

 PROGRAMS   *        TOTAL     DF-HF       INT
 CPU TIMES  *        33.75     32.96      0.70
 REAL TIME  *        40.22 SEC
 DISK USED  *       140.31 MB
 **********************************************************************************************************************************


 PROGRAM * CCSD (Closed-shell coupled cluster)     Authors: C. Hampel, H.-J. Werner, 1991, M. Deegan, P.J. Knowles, 1992

                    Density fitting coupled cluster methods (ITF), W. Gyorffy, 2015

                                  CCSD-F12 implementation by  H.-J. Werner, 2007

                   Density fitting integral evaluation by F.R. Manby, 2003,2007, G. Knizia, 2010


 Basis set CC-PVTZ-F12/OPTRI generated.  Number of basis functions:   703 

 Generating union of orbital basis set VTZ-F12 and corresponding OPTRI basis

 Basis set CC-PVTZ-F12_CABS generated.   Number of basis functions:   1112 
 Basis set AUG-CC-PVTZ/MP2FIT generated. Number of basis functions:   898 

 Convergence thresholds:  THRVAR = 1.00D-08  THRDEN = 1.00D-06

 Number of core orbitals:           5 (   5 )
 Number of closed-shell orbitals:  16 (  16 )
 Number of external orbitals:     388 ( 388 )

 Molecular orbitals read from record     2100.2  Type=RHF/CANONICAL (state 1.1)
 Ansatz: F12/3*C(FIX,HY1)
 F12b method
 Enter DF-CCSD-F12 [ITF]

 Geminal basis:    OPTFULL  GEM_TYPE=SLATER  BETA=1.0  NGEM=6

 Optimizing Gaussian exponents for each gem_beta

 Geminal optimization for beta= 1.0000
 Weight function:   m=0, omega= 1.4646

 Augmented Hessian optimization of geminal fit. Trust ratio= 0.40000
 Convergence reached after   2 iterations. Final gradient= 8.53D-16, Step= 4.26D-06, Delta= 1.28D-09

 Alpha:                 0.19532     0.81920     2.85917     9.50073    35.69989   197.79328
 Coeff:                 0.27070     0.30552     0.18297     0.10986     0.06810     0.04224



  Reference energy:                  -267.926582064073
  MP2 correlation energy:              -1.075224115173

  !MP2 total energy:                 -269.001806179246

  DF-MP2-F12 energy corrections:
  ==============================
  Approx.                                    Total
  DF-MP2-F12/3*C(DX,FIX):              -0.094396403643
  DF-MP2-F12/3*C(FIX):                 -0.088822532789

  DF-MP2-F12 correlation energies:
  ================================
  Approx.                                    Ecorr
  DF-MP2:                              -1.075224115173
  DF-MP2-F12/3*C(DX,FIX):              -1.169620518816
  DF-MP2-F12/3*C(FIX):                 -1.164046647962

  Reference energy:                  -267.926582064073
  MP2-F12 correlation energy:          -1.164046647962

  !MP2-F12 total energy:             -269.090628712035
  MP2 correlation energy:              -1.075224115173
  PT2 correlation energy:              -1.075224116143

 Transformed 3-ext integrals are computed and stored!

 Transformed 4-ext integrals are computed and stored!

 ITER.      SQ.NORM     CORR.ENERGY   TOTAL ENERGY   ENERGY CHANGE        DEN1      VAR(S)    VAR(P)  DIIS     TIME
   1      1.31178080    -1.08482537  -269.01140743    -0.00960125     0.02940733  1.79e-02  7.95e-03  1  1   796.68
   2      1.34369685    -1.08515035  -269.01173242    -0.00032498    -0.03344593  3.13e-04  3.01e-03  2  2  1572.28
   3      1.36247936    -1.08620712  -269.01278918    -0.00105676    -0.00089609  3.13e-04  3.02e-04  3  3  2358.11
   4      1.38142597    -1.08686537  -269.01344744    -0.00065826    -0.00389583  5.17e-05  1.54e-04  4  4  3141.69
   5      1.39634856    -1.08698297  -269.01356503    -0.00011759    -0.00150458  2.59e-05  4.37e-05  5  5  3943.32
   6      1.40971010    -1.08689395  -269.01347601     0.00008902    -0.00076321  5.29e-06  1.21e-05  6  0  4728.21
   7      1.41874430    -1.08678609  -269.01336815     0.00010786    -0.00032590  1.68e-06  2.08e-06  6  1  5525.60
   8      1.42115790    -1.08674130  -269.01332336     0.00004479    -0.00002092  2.63e-07  5.85e-07  6  2  6328.57
   9      1.42289899    -1.08672059  -269.01330266     0.00002071    -0.00003796  6.95e-08  1.06e-07  6  3  7133.59
  10      1.42316714    -1.08671803  -269.01330010     0.00000256    -0.00000738  7.42e-09  2.45e-08  6  4  7916.60
  11      1.42333900    -1.08671692  -269.01329899     0.00000111    -0.00000449  1.86e-09  4.40e-09  6  5  8697.55
  12      1.42333349    -1.08671766  -269.01329973    -0.00000074    -0.00000021  3.70e-10  8.22e-10        9477.56

 Norm of t1 vector:      0.28450878     S-energy:      0.00000506   T1 diagnostic:  0.03556360

 Time per iteration:                    789.81 sec


  F12b       energy corrections:
  ==============================
  CC-F12b:                              0.017577010831
 RESULTS
 =======

  Reference energy:                  -267.926582064073
  CCSD correlation energy:             -1.086717664136
 !CCSD total energy:                 -269.013299728209
  DF-MP2-F12 energy corrections:
  ==============================
  Approx.                                    Total
  DF-MP2-F12/3*C(DX,FIX):              -0.094396403643
  DF-MP2-F12/3*C(FIX):                 -0.088822532789

  DF-MP2-F12 correlation energies:
  ================================
  Approx.                                    Ecorr
  DF-MP2:                              -1.075224115173
  DF-MP2-F12/3*C(DX,FIX):              -1.169620518816
  DF-MP2-F12/3*C(FIX):                 -1.164046647962

  Reference energy:                  -267.926582064073
  MP2-F12 correlation energy:          -1.164046647962

  !MP2-F12 total energy:             -269.090628712035

  CCSD-F12 correlation energies:
  ================================
  Approx.                                    Ecorr
  CCSD:                                -1.086717664136
  CCSD-F12/3*C(DX,FIX):                -1.181114067778
  CCSD-F12/3*C(FIX):                   -1.157963186094

  Reference energy:                  -267.926582064073
  CCSD-F12 correlation energy:         -1.157963186094

  !CCSD-F12 total energy:            -269.084545250167





 **********************************************************************************************************************************
 DATASETS  * FILE   NREC   LENGTH (MB)   RECORD NAMES
              1      19       36.35       500      610      700      900      950      970     1000      129      960     1100   
                                          VAR    BASINP    GEOM    SYMINP    ZMAT    AOBASIS   BASIS     P2S    ABASIS      S 
                                         1400     1410     1200     1210     1080     1600     1650     1700      960(1)
                                           T        V       H0       H01     AOSYM     SMH    MOLCAS    OPER    ABASIS    

              2       4        7.04       700     1000      520     2100   
                                         GEOM     BASIS   MCVARS     RHF  

 PROGRAMS   *        TOTAL  CCSD-F12     DF-HF       INT
 CPU TIMES  *     12381.64  12347.89     32.96      0.70
 REAL TIME  *     23956.22 SEC
 DISK USED  *       236.48 GB
 **********************************************************************************************************************************

 DF-CCSD-F12/cc-pVTZ-F12 energy=   -269.084545250167

     DF-CCSD-F12           DF-HF
   -269.08454525   -267.92658206
 **********************************************************************************************************************************
 Molpro calculation terminated
