
 Primary working directories    : /var/tmp/pbs.368028.bp1/molpro.Ook6Ds9CB5
 Secondary working directories  : /var/tmp/pbs.368028.bp1/molpro.Ook6Ds9CB5
 Wavefunction directory         : /home/lb17101/molpro_test/inp/
 Main file repository           : /home/lb17101/molpro_test/inp/

 id        : uob

 Nodes                         nprocs
 bp1-11-03-01.data.bp.acrc.priv    1

 Using customized tuning parameters: mindgm=1; mindgv=20; mindgc=4; mindgr=1; noblas=0; minvec=7
 default implementation of scratch files=df  


 Variables initialized (934), CPU time= 0.01 sec
 geomtyp=xyz
 nosym
 noorient
 geometry={
  C       2.220056523678      -1.855951882524       0.532348274482
  C       1.411597292798      -0.917487123079       0.861954325194
  C       0.299581810519      -0.256600171094       0.261236339696
  C      -0.554112979057       0.090517700901      -0.836372648419
  C      -1.667410956083       1.092439091259      -0.643761888971
  O      -1.811436316369       1.597562077201       0.628618654716
  C       0.602733411253       0.338241901242       1.513192855659
  H       2.877060602777      -2.860636127449       0.265808511151
  H      -0.484451568610      -0.875092746156      -1.562005833293
  H      -1.695649257483       2.006501820777      -1.367426493984
  H      -2.500632155565       0.463135111815      -1.137814520757
  H       0.033853909790       0.123238995590       2.479133606353
  H       1.441941263507       1.246619377540       1.474897925414
 }
 basis=vdz-f12
 df-hf
 df-ccsd(t)-f12,cabs_singles=1,scale_trip=1
 Commands  initialized (763), CPU time= 0.01 sec, 617 directives.
 Default parameters read. Elapsed time= 0.08 sec

 Checking input...
 Passed
1


                                         ***  PROGRAM SYSTEM MOLPRO  ***
                                       Copyright, TTI GmbH Stuttgart, 2015
                                    Version 2019.2 linked Oct 25 2019 22:50:27


 **********************************************************************************************************************************
 LABEL *                                                                                 
  64 bit serial version                                                                  DATE: 24-Sep-20          TIME: 19:23:28  
 **********************************************************************************************************************************

 SHA1:             8dbd9ae1082e4ce945b0f27595c9eb2d4aa09004
 **********************************************************************************************************************************
 SETTING GEOMTYP        =    XYZ

 Variable memory set to 4096000000 words,  buffer space 

 ZSYMEL=NOSYM

 SETTING BASIS          =    VDZ-F12


 Recomputing integrals since basis changed


 Using spherical harmonics

 Library entry C      S cc-pVDZ-F12          selected for orbital group  1
 Library entry C      P cc-pVDZ-F12          selected for orbital group  1
 Library entry C      D cc-pVDZ-F12          selected for orbital group  1
 Library entry O      S cc-pVDZ-F12          selected for orbital group  2
 Library entry O      P cc-pVDZ-F12          selected for orbital group  2
 Library entry O      D cc-pVDZ-F12          selected for orbital group  2
 Library entry H      S cc-pVDZ-F12          selected for orbital group  4
 Library entry H      P cc-pVDZ-F12          selected for orbital group  4


 PROGRAM * SEWARD (Integral evaluation for generally contracted gaussian basis sets)     Author: Roland Lindh, 1990

 Geometry written to block  1 of record 700


 Point group  C1  



 ATOMIC COORDINATES

 NR  ATOM    CHARGE       X              Y              Z

   1  C       6.00    4.195298811   -3.507240758    1.005992442
   2  C       6.00    2.667532282   -1.733799385    1.628857607
   3  C       6.00    0.566127574   -0.484904047    0.493665136
   4  C       6.00   -1.047121772    0.171053664   -1.580515244
   5  C       6.00   -3.150950044    2.064410690   -1.216533660
   6  O       8.00   -3.423118530    3.018954793    1.187917094
   7  C       6.00    1.139001073    0.639184557    2.859520071
   8  H       1.00    5.436856583   -5.405818823    0.502305288
   9  H       1.00   -0.915480785   -1.653685624   -2.951763230
  10  H       1.00   -3.204312700    3.791738910   -2.584061569
  11  H       1.00   -4.725509912    0.875198520   -2.150157825
  12  H       1.00    0.063974618    0.232887950    4.684883542
  13  H       1.00    2.724874076    2.355769205    2.787153141

 Bond lengths in Bohr (Angstrom)

 1-2  2.422215078  1-8  2.323739469  2-3  2.695237143  2-7  3.079284097  3-4  2.708334953
     ( 1.281781019)     ( 1.229669971)     ( 1.426258074)     ( 1.629486970)     ( 1.433189137)

  3- 7  2.681236433   4- 5  2.853660249   4- 9  2.286334153   5- 6  2.601271527   5-10  2.203779239
       ( 1.418849217)       ( 1.510091972)       ( 1.209875930)       ( 1.376533611)       ( 1.166189751)

  5-11  2.182915126   7-12  2.157014283   7-13  2.338138791
       ( 1.155148938)       ( 1.141442802)       ( 1.237289764)

 Bond angles

  1-2-3  136.27937454   1-2-7  168.54518765   2-1-8  172.27812275   2-3-4  154.05492955

  2- 3- 7   69.88150433   2- 7- 3   55.27279931   2- 7-12  116.13247383   2- 7-13  102.51623458

  3- 2- 7   54.84569636   3- 4- 5  120.14275426   3- 4- 9  103.39880463   3- 7-12  124.14238029

  3- 7-13  115.17610410   4- 3- 7  134.54714267   4- 5- 6  116.00834474   4- 5-10  117.30602387

  4- 5-11   96.64815522   5- 4- 9  130.42693135   6- 5-10  106.46523453   6- 5-11  121.31711605

 10- 5-11   98.28713229  12- 7-13  120.16666730

 NUCLEAR CHARGE:                   50
 NUMBER OF PRIMITIVE AOS:         353
 NUMBER OF SYMMETRY AOS:          339
 NUMBER OF CONTRACTIONS:          264   (  264A   )
 NUMBER OF CORE ORBITALS:           7   (    7A   )
 NUMBER OF VALENCE ORBITALS:       34   (   34A   )


 NUCLEAR REPULSION ENERGY  248.71583018


 Eigenvalues of metric

         1 0.511E-04 0.776E-04 0.938E-04 0.126E-03 0.156E-03 0.217E-03 0.298E-03 0.377E-03


 OPERATOR DM      FOR CENTER  0  COORDINATES:    0.000000    0.000000    0.000000


 **********************************************************************************************************************************
 DATASETS  * FILE   NREC   LENGTH (MB)   RECORD NAMES
              1      18       32.76       500      610      700      900      950      970     1000      129      960     1100   
                                          VAR    BASINP    GEOM    SYMINP    ZMAT    AOBASIS   BASIS     P2S    ABASIS      S 
                                         1400     1410     1200     1210     1080     1600     1650     1700   
                                           T        V       H0       H01     AOSYM     SMH    MOLCAS    OPER   

 PROGRAMS   *        TOTAL       INT
 CPU TIMES  *         0.73      0.62
 REAL TIME  *         4.94 SEC
 DISK USED  *        33.30 MB
 **********************************************************************************************************************************


 PROGRAM * RHF-SCF (CLOSED SHELL)       Authors: W. Meyer, H.-J. Werner


 NUMBER OF ELECTRONS:      25+   25-    SPACE SYMMETRY=1    SPIN SYMMETRY: Singlet 
 CONVERGENCE THRESHOLDS:    1.00E-05 (Density)    1.00E-07 (Energy)
 INTEGRAL THRESHOLDS:       1.00E-11 (Initial)    1.00E-11 (Final)
 MAX. NUMBER OF ITERATIONS:       60
 INTERPOLATION TYPE:            DIIS
 INTERPOLATION STEPS:              2 (START)      1 (STEP)
 LEVEL SHIFTS:                  0.00 (CLOSED)  0.00 (OPEN) 




 Basis set AUG-CC-PVDZ/JKFIT generated.  Number of basis functions:   794 

 Orbital guess generated from atomic densities. Full valence occupancy:   41
 Using density fitting in orbital guess

 Coulomb and exchange fitting
 Thresholds for fitting:       THRAO_COUL= 1.0D-14    THRAO_EXCH= 1.0D-12    THRMO= 1.0D-11    THRPROD= 1.0D-11    THRASM= 1.0D-11
                               THR2HLF=    1.0D-11

 Molecular orbital dump at record        2100.2

 Initial occupancy:  25

 ITERATION   DDIFF            GRAD            ENERGY        2-EL.EN.            DIPOLE MOMENTS         DIIS   CPU(IT)  CPU(TOT)  ORB.
    1      0.000D+00      0.000D+00      -305.01799829    709.183468    5.75223   -4.97416   -0.41330    0      1.1      2.4     start
    2      0.000D+00      0.532D-02      -303.67952874    697.059374  -10.41622    8.60684   -0.49858    1      1.1      3.5     diag
    3      0.171D-01      0.137D-01      -305.17793067    707.152249    5.13444   -4.39027   -0.19038    2      1.1      4.6     diag
    4      0.150D-01      0.238D-02      -305.22070770    706.418858    4.22043   -3.61007   -0.24492    3      1.1      5.7     diag
    5      0.269D-02      0.114D-02      -305.22999774    706.094945    3.96168   -3.40571   -0.22719    4      1.1      6.8     diag
    6      0.136D-02      0.425D-03      -305.23266148    705.825856    3.71185   -3.19152   -0.28289    5      1.1      7.9     diag
    7      0.703D-03      0.198D-03      -305.23336701    705.829223    3.61756   -3.12274   -0.29403    6      1.1      9.0     diag
    8      0.403D-03      0.696D-04      -305.23355164    705.806971    3.57093   -3.09366   -0.32090    7      1.1     10.1     diag
    9      0.229D-03      0.314D-04      -305.23359016    705.811916    3.56161   -3.08943   -0.32748    8      1.1     11.2     diag
   10      0.111D-03      0.133D-04      -305.23359808    705.807618    3.55590   -3.08811   -0.33181    9      1.1     12.3     orth
   11      0.558D-04      0.573D-05      -305.23359931    705.812403    3.55623   -3.08915   -0.33362    9      1.1     13.4     diag
   12      0.205D-04      0.296D-05      -305.23359961    705.809785    3.55606   -3.08909   -0.33351    9      1.1     14.4     diag
   13      0.105D-04      0.147D-05      -305.23359969    705.810437    3.55618   -3.08926   -0.33369    9      1.2     15.6     diag
   14      0.417D-05      0.887D-06      -305.23359972    705.810396    3.55621   -3.08920   -0.33363    0      1.1     16.7     orth

 Final occupancy:  25

 !RHF STATE  1.1 Energy              -305.233599717461
 Nuclear energy                       248.71583018
 One-electron energy                 -906.85462810
 Two-electron energy                  352.90519820
 Virial quotient                       -1.00470516
 !RHF STATE  1.1 Dipole moment          3.55621151    -3.08920304    -0.33362864
 Dipole moment /Debye                   9.03839604    -7.85145667    -0.84794387

 Orbital energies:

         1.1          2.1          3.1          4.1          5.1          6.1          7.1          8.1          9.1         10.1
    -20.388698   -11.396003   -11.352590   -11.351060   -11.320380   -11.293020   -11.249771    -1.227648    -1.176725    -1.062980

        11.1         12.1         13.1         14.1         15.1         16.1         17.1         18.1         19.1         20.1
     -0.991122    -0.835977    -0.794783    -0.750384    -0.653538    -0.641866    -0.587675    -0.528746    -0.524865    -0.506808

        21.1         22.1         23.1         24.1         25.1         26.1         27.1
     -0.492434    -0.447422    -0.358562    -0.303965    -0.285094    -0.025969     0.016241


 HOMO     25.1    -0.285094 =      -7.7578eV
 LUMO     26.1    -0.025969 =      -0.7067eV
 LUMO-HOMO         0.259124 =       7.0511eV


 **********************************************************************************************************************************
 DATASETS  * FILE   NREC   LENGTH (MB)   RECORD NAMES
              1      18       32.76       500      610      700      900      950      970     1000      129      960     1100   
                                          VAR    BASINP    GEOM    SYMINP    ZMAT    AOBASIS   BASIS     P2S    ABASIS      S 
                                         1400     1410     1200     1210     1080     1600     1650     1700   
                                           T        V       H0       H01     AOSYM     SMH    MOLCAS    OPER   

              2       4        4.67       700     1000      520     2100   
                                         GEOM     BASIS   MCVARS     RHF  

 PROGRAMS   *        TOTAL     DF-HF       INT
 CPU TIMES  *        17.45     16.72      0.62
 REAL TIME  *        22.65 SEC
 DISK USED  *       108.44 MB
 **********************************************************************************************************************************


 PROGRAM * CCSD (Closed-shell coupled cluster)     Authors: C. Hampel, H.-J. Werner, 1991, M. Deegan, P.J. Knowles, 1992

                    Density fitting coupled cluster methods (ITF), W. Gyorffy, 2015

                                  CCSD-F12 implementation by  H.-J. Werner, 2007

                   Density fitting integral evaluation by F.R. Manby, 2003,2007, G. Knizia, 2010


 Basis set CC-PVDZ-F12/OPTRI generated.  Number of basis functions:   594 

 Generating union of orbital basis set VDZ-F12 and corresponding OPTRI basis

 Basis set CC-PVDZ-F12_CABS generated.   Number of basis functions:   858 
 Basis set AUG-CC-PVDZ/MP2FIT generated. Number of basis functions:   642 

 Convergence thresholds:  THRVAR = 1.00D-08  THRDEN = 1.00D-06

 CCSD(T)     terms to be evaluated (factor= 1.000)


 Number of core orbitals:           7 (   7 )
 Number of closed-shell orbitals:  18 (  18 )
 Number of external orbitals:     239 ( 239 )

 Molecular orbitals read from record     2100.2  Type=RHF/CANONICAL (state 1.1)
 Ansatz: F12/3*C(FIX,HY1)
 F12b method
 Enter DF-CCSD-F12 [ITF]

 Geminal basis:    OPTFULL  GEM_TYPE=SLATER  BETA=1.0  NGEM=6

 Optimizing Gaussian exponents for each gem_beta

 Geminal optimization for beta= 1.0000
 Weight function:   m=0, omega= 1.4646

 Augmented Hessian optimization of geminal fit. Trust ratio= 0.40000
 Convergence reached after   2 iterations. Final gradient= 8.53D-16, Step= 4.26D-06, Delta= 1.28D-09

 Alpha:                 0.19532     0.81920     2.85917     9.50073    35.69989   197.79328
 Coeff:                 0.27070     0.30552     0.18297     0.10986     0.06810     0.04224



  Reference energy:                  -305.233599717460
  MP2 correlation energy:              -1.119841380732

  !MP2 total energy:                 -306.353441098192

  DF-MP2-F12 energy corrections:
  ==============================
  Approx.                                    Total
  DF-MP2-F12/3*C(DX,FIX):              -0.206153602141
  DF-MP2-F12/3*C(FIX):                 -0.202189634434

  DF-MP2-F12 correlation energies:
  ================================
  Approx.                                    Ecorr
  DF-MP2:                              -1.119841380732
  DF-MP2-F12/3*C(DX,FIX):              -1.325994982873
  DF-MP2-F12/3*C(FIX):                 -1.322031015166

  Reference energy:                  -305.233599717460
  MP2-F12 correlation energy:          -1.322031015166

  !MP2-F12 total energy:             -306.555630732626
  MP2 correlation energy:              -1.119841380732
  PT2 correlation energy:              -1.119841386507

 Transformed 3-ext integrals are computed and stored!

 Transformed 4-ext integrals are computed and stored!

 ITER.      SQ.NORM     CORR.ENERGY   TOTAL ENERGY   ENERGY CHANGE        DEN1      VAR(S)    VAR(P)  DIIS     TIME
   1      1.39744586    -1.11773025  -306.35132997     0.00211113     0.04549112  2.07e-02  1.04e-02  1  1   181.25
   2      1.44705195    -1.12019628  -306.35379600    -0.00246603    -0.03864488  4.59e-04  3.45e-03  2  2   374.44
   3      1.47136553    -1.12287567  -306.35647539    -0.00267939    -0.00175155  4.88e-04  5.80e-04  3  3   560.53
   4      1.50476256    -1.12472292  -306.35832264    -0.00184725    -0.00572312  9.82e-05  4.14e-04  4  4   746.43
   5      1.53068301    -1.12571470  -306.35931442    -0.00099178    -0.00192528  1.27e-04  2.22e-04  5  5   931.53
   6      1.55828576    -1.12650970  -306.36010942    -0.00079500    -0.00121407  8.25e-05  1.72e-04  6  0  1112.06
   7      1.60274210    -1.12749096  -306.36109068    -0.00098126    -0.00123469  5.38e-05  1.19e-04  6  1  1300.05
   8      1.66327130    -1.12834047  -306.36194019    -0.00084951    -0.00103339  4.02e-05  7.51e-05  6  2  1490.85
   9      1.73957586    -1.12868669  -306.36228641    -0.00034622    -0.00092854  1.19e-05  4.43e-05  6  3  1678.89
  10      1.80783547    -1.12859888  -306.36219860     0.00008781    -0.00066633  6.06e-06  1.43e-05  6  4  1862.82
  11      1.85574394    -1.12857198  -306.36217170     0.00002691    -0.00044852  2.40e-06  1.28e-05  6  5  2042.28
  12      1.85856032    -1.12821371  -306.36181343     0.00035827     0.00000256  1.42e-06  1.20e-05  6  0  2232.23
  13      1.86337884    -1.12831495  -306.36191467    -0.00010124    -0.00008216  1.11e-06  3.93e-06  6  1  2419.67
  14      1.87790690    -1.12835772  -306.36195744    -0.00004277    -0.00015937  5.30e-07  1.26e-06  6  2  2601.21
  15      1.88721423    -1.12836704  -306.36196676    -0.00000932    -0.00009281  2.88e-07  5.18e-07  6  3  2782.70
  16      1.89083745    -1.12836451  -306.36196422     0.00000253    -0.00003985  1.98e-07  3.19e-07  6  4  2971.71
  17      1.89260989    -1.12835898  -306.36195870     0.00000553    -0.00001855  1.51e-07  2.20e-07  6  5  3160.71
  18      1.89376301    -1.12835834  -306.36195806     0.00000064    -0.00000982  1.20e-07  1.75e-07  6  0  3343.01
  19      1.89468927    -1.12835171  -306.36195143     0.00000663    -0.00000660  8.12e-08  1.23e-07  6  1  3519.77
  20      1.89678001    -1.12833819  -306.36193790     0.00001352    -0.00001253  3.22e-08  6.89e-08  6  2  3708.93
  21      1.89788905    -1.12833778  -306.36193750     0.00000041    -0.00000217  1.12e-08  2.80e-08  6  3  3891.74
  22      1.89837601    -1.12833123  -306.36193094     0.00000656     0.00000113  4.99e-09  1.22e-08  6  4  4063.24
  23      1.89864324    -1.12833331  -306.36193303    -0.00000209     0.00000120  2.31e-09  4.87e-09  6  5  4246.68
  24      1.89865153    -1.12833448  -306.36193419    -0.00000116     0.00000183  1.47e-09  2.58e-09  6  0  4433.75
  25      1.89869892    -1.12833620  -306.36193592    -0.00000173     0.00000067  6.99e-10  1.40e-09  6  1  4615.31
  26      1.89867896    -1.12833835  -306.36193807    -0.00000215     0.00000071  2.76e-10  7.19e-10  6  2  4791.92
  27      1.89868929    -1.12833892  -306.36193864    -0.00000056     0.00000002  1.70e-10  3.85e-10        4970.67

 Norm of t1 vector:      0.61497213     S-energy:      0.00000890   T1 diagnostic:  0.07247516

 Time per iteration:                    184.10 sec


  F12b       energy corrections:
  ==============================
  CC-F12b:                              0.029356085409
 RESULTS
 =======

  Reference energy:                  -305.233599717460
  CCSD correlation energy:             -1.128338917685
 !CCSD total energy:                 -306.361938635145

  Triples (T) contribution:            -0.081323098753
  Total correlation energy:            -1.209662016438
  CCSD[T] total energy:              -306.462674982480
  CCSD(T) total energy:              -306.443261733898
  DF-MP2-F12 energy corrections:
  ==============================
  Approx.                                    Total
  DF-MP2-F12/3*C(DX,FIX):              -0.206153602141
  DF-MP2-F12/3*C(FIX):                 -0.202189634434

  DF-MP2-F12 correlation energies:
  ================================
  Approx.                                    Ecorr
  DF-MP2:                              -1.119841380732
  DF-MP2-F12/3*C(DX,FIX):              -1.325994982873
  DF-MP2-F12/3*C(FIX):                 -1.322031015166

  Reference energy:                  -305.233599717460
  MP2-F12 correlation energy:          -1.322031015166

  !MP2-F12 total energy:             -306.555630732626

  CCSD(T)-F12 correlation energies:
  ================================
  Approx.                                    Ecorr
  CCSD(T):                             -1.209662016438
  CCSD(T)-F12/3*C(DX,FIX):             -1.415815618579
  CCSD(T)-F12/3*C(FIX):                -1.382495565463

  Reference energy:                  -305.233599717460
  CCSD(T)-F12 correlation energy:      -1.382495565463

  !CCSD(T)-F12 total energy:         -306.616095282923





 **********************************************************************************************************************************
 DATASETS  * FILE   NREC   LENGTH (MB)   RECORD NAMES
              1      19       32.77       500      610      700      900      950      970     1000      129      960     1100   
                                          VAR    BASINP    GEOM    SYMINP    ZMAT    AOBASIS   BASIS     P2S    ABASIS      S 
                                         1400     1410     1200     1210     1080     1600     1650     1700      960(1)
                                           T        V       H0       H01     AOSYM     SMH    MOLCAS    OPER    ABASIS    

              2       4        4.67       700     1000      520     2100   
                                         GEOM     BASIS   MCVARS     RHF  

 PROGRAMS   *        TOTAL   CCSD(T)     DF-HF       INT
 CPU TIMES  *      7881.73   7864.28     16.72      0.62
 REAL TIME  *      8596.32 SEC
 DISK USED  *        45.78 GB
 **********************************************************************************************************************************

 DF-CCSD(T)-F12/cc-pVDZ-F12 energy=   -306.616095282923

  DF-CCSD(T)-F12           DF-HF
   -306.61609528   -305.23359972
 **********************************************************************************************************************************
 Molpro calculation terminated
