
 Primary working directories    : /var/tmp/pbs.368038.bp1/molpro.hn88Y0tAwa
 Secondary working directories  : /var/tmp/pbs.368038.bp1/molpro.hn88Y0tAwa
 Wavefunction directory         : /home/lb17101/molpro_test/inp/
 Main file repository           : /home/lb17101/molpro_test/inp/

 id        : uob

 Nodes                         nprocs
 bp1-13-14-03.data.bp.acrc.priv    1

 Using customized tuning parameters: mindgm=1; mindgv=20; mindgc=4; mindgr=1; noblas=0; minvec=7
 default implementation of scratch files=df  


 Variables initialized (934), CPU time= 0.00 sec
 geomtyp=xyz
 nosym
 noorient
 geometry={
  C      -1.823639944849       0.283336659566       0.261829355759
  C      -0.511970621848      -0.450222548386       0.075378985519
  O      -0.001208675343      -0.316432936271      -1.250809645401
  C       0.652994988676       0.336895996758       0.666892416384
  O       2.376340260045      -0.606622188589      -0.658638614409
  H      -1.725774119799       1.314519063485      -0.251472831285
  H      -2.140804862933       0.452681772603       1.313688629466
  H      -2.644717465291      -0.206782854241      -0.323318442727
  H      -0.505595249154      -1.474461792874       0.376960730184
  H       1.373489331199      -0.736997440116      -1.057055937078
  H       0.756009475318       1.387826730146       0.287614648104
  H       1.396654971538      -0.110494175162       1.326100926326
  H       2.442470167856       0.319502233246      -1.064950524831
 }
 basis=vdz-f12
 df-hf
 df-ccsd(t)-f12,cabs_singles=1,scale_trip=1
 Commands  initialized (763), CPU time= 0.00 sec, 617 directives.
 Default parameters read. Elapsed time= 0.08 sec

 Checking input...
 Passed
1


                                         ***  PROGRAM SYSTEM MOLPRO  ***
                                       Copyright, TTI GmbH Stuttgart, 2015
                                    Version 2019.2 linked Oct 25 2019 22:50:27


 **********************************************************************************************************************************
 LABEL *                                                                                 
  64 bit serial version                                                                  DATE: 24-Sep-20          TIME: 20:25:14  
 **********************************************************************************************************************************

 SHA1:             8dbd9ae1082e4ce945b0f27595c9eb2d4aa09004
 **********************************************************************************************************************************
 SETTING GEOMTYP        =    XYZ

 Variable memory set to 4096000000 words,  buffer space 

 ZSYMEL=NOSYM

 SETTING BASIS          =    VDZ-F12


 Recomputing integrals since basis changed


 Using spherical harmonics

 Library entry C      S cc-pVDZ-F12          selected for orbital group  1
 Library entry C      P cc-pVDZ-F12          selected for orbital group  1
 Library entry C      D cc-pVDZ-F12          selected for orbital group  1
 Library entry O      S cc-pVDZ-F12          selected for orbital group  2
 Library entry O      P cc-pVDZ-F12          selected for orbital group  2
 Library entry O      D cc-pVDZ-F12          selected for orbital group  2
 Library entry H      S cc-pVDZ-F12          selected for orbital group  5
 Library entry H      P cc-pVDZ-F12          selected for orbital group  5


 PROGRAM * SEWARD (Integral evaluation for generally contracted gaussian basis sets)     Author: Roland Lindh, 1990

 Geometry written to block  1 of record 700


 Point group  C1  



 ATOMIC COORDINATES

 NR  ATOM    CHARGE       X              Y              Z

   1  C       6.00   -3.446180046    0.535428688    0.494785774
   2  C       6.00   -0.967484259   -0.850797312    0.142445638
   3  O       8.00   -0.002284065   -0.597971586   -2.363687664
   4  C       6.00    1.233981689    0.636641166    1.260244022
   5  O       8.00    4.490632270   -1.146349798   -1.244646596
   6  H       1.00   -3.261240439    2.484081016   -0.475214779
   7  H       1.00   -4.045534877    0.855444572    2.482511723
   8  H       1.00   -4.997791686   -0.390762962   -0.610983308
   9  H       1.00   -0.955436551   -2.786328970    0.712352540
  10  H       1.00    2.595518671   -1.392723316   -1.997546219
  11  H       1.00    1.428650856    2.622612428    0.543512914
  12  H       1.00    2.639295387   -0.208803729    2.505967564
  13  H       1.00    4.615599685    0.603771717   -2.012464828

 Bond lengths in Bohr (Angstrom)

 1-2  2.861764996  1-6  2.184570810  1-7  2.100640576  1-8  2.118502990  2-3  2.697449979
     ( 1.514380819)     ( 1.156025088)     ( 1.111611121)     ( 1.121063503)     ( 1.427429056)

  2- 4  2.882429318   2- 9  2.017726895   4-11  2.120302200   4-12  2.059492851   5-10  2.054023687
       ( 1.525315907)       ( 1.067735091)       ( 1.122015604)       ( 1.089836683)       ( 1.086942526)

  5-13  1.915225054
       ( 1.013493452)

 Bond angles

  1-2-3  112.26611623   1-2-4  111.33425057   1-2-9  115.78906988   2-1-6  107.70347569

  2- 1- 7  115.93960065   2- 1- 8  110.99790714   2- 4-11  114.98473315   2- 4-12  122.94830653

  3-2-4   92.21445732   3-2-9  110.49895044   4-2-9  112.39075571   6-1-7  107.96405425

  6- 1- 8  102.72196539   7- 1- 8  110.58109735  10- 5-13   91.30977366  11- 4-12  121.75715431

 NUCLEAR CHARGE:                   42
 NUMBER OF PRIMITIVE AOS:         293
 NUMBER OF SYMMETRY AOS:          283
 NUMBER OF CONTRACTIONS:          222   (  222A   )
 NUMBER OF CORE ORBITALS:           5   (    5A   )
 NUMBER OF VALENCE ORBITALS:       28   (   28A   )


 NUCLEAR REPULSION ENERGY  185.62484681


 Eigenvalues of metric

         1 0.106E-03 0.257E-03 0.441E-03 0.644E-03 0.853E-03 0.105E-02 0.109E-02 0.171E-02


 OPERATOR DM      FOR CENTER  0  COORDINATES:    0.000000    0.000000    0.000000


 **********************************************************************************************************************************
 DATASETS  * FILE   NREC   LENGTH (MB)   RECORD NAMES
              1      18       32.01       500      610      700      900      950      970     1000      129      960     1100   
                                          VAR    BASINP    GEOM    SYMINP    ZMAT    AOBASIS   BASIS     P2S    ABASIS      S 
                                         1400     1410     1200     1210     1080     1600     1650     1700   
                                           T        V       H0       H01     AOSYM     SMH    MOLCAS    OPER   

 PROGRAMS   *        TOTAL       INT
 CPU TIMES  *         0.67      0.58
 REAL TIME  *         3.63 SEC
 DISK USED  *        32.54 MB
 **********************************************************************************************************************************


 PROGRAM * RHF-SCF (CLOSED SHELL)       Authors: W. Meyer, H.-J. Werner


 NUMBER OF ELECTRONS:      21+   21-    SPACE SYMMETRY=1    SPIN SYMMETRY: Singlet 
 CONVERGENCE THRESHOLDS:    1.00E-05 (Density)    1.00E-07 (Energy)
 INTEGRAL THRESHOLDS:       1.00E-11 (Initial)    1.00E-11 (Final)
 MAX. NUMBER OF ITERATIONS:       60
 INTERPOLATION TYPE:            DIIS
 INTERPOLATION STEPS:              2 (START)      1 (STEP)
 LEVEL SHIFTS:                  0.00 (CLOSED)  0.00 (OPEN) 




 Basis set AUG-CC-PVDZ/JKFIT generated.  Number of basis functions:   686 

 Orbital guess generated from atomic densities. Full valence occupancy:   33
 Using density fitting in orbital guess

 Coulomb and exchange fitting
 Thresholds for fitting:       THRAO_COUL= 1.0D-14    THRAO_EXCH= 1.0D-12    THRMO= 1.0D-11    THRPROD= 1.0D-11    THRASM= 1.0D-11
                               THR2HLF=    1.0D-11

 Molecular orbital dump at record        2100.2

 Initial occupancy:  21

 ITERATION   DDIFF            GRAD            ENERGY        2-EL.EN.            DIPOLE MOMENTS         DIIS   CPU(IT)  CPU(TOT)  ORB.
    1      0.000D+00      0.000D+00      -267.76292760    564.794911   -0.56065    1.64275    2.40791    0      0.9      1.9     start
    2      0.000D+00      0.574D-02      -267.83275813    558.521104   -0.55893    0.63850    0.78592    1      1.0      2.9     diag
    3      0.895D-02      0.455D-02      -267.90016130    561.913520   -0.49230    1.03682    1.78303    2      0.8      3.7     diag
    4      0.390D-02      0.797D-03      -267.90336887    561.660702   -0.53319    1.04019    1.68080    3      0.8      4.4     diag
    5      0.102D-02      0.371D-03      -267.90408650    561.634996   -0.52138    1.02910    1.73133    4      0.8      5.2     diag
    6      0.438D-03      0.120D-03      -267.90423026    561.642378   -0.53139    1.03438    1.73354    5      0.7      6.0     diag
    7      0.196D-03      0.454D-04      -267.90426441    561.631146   -0.53121    1.03597    1.73786    6      0.7      6.7     diag
    8      0.108D-03      0.176D-04      -267.90426985    561.634846   -0.53215    1.03717    1.73902    7      0.7      7.4     diag
    9      0.438D-04      0.660D-05      -267.90427077    561.636140   -0.53135    1.03764    1.73983    8      0.9      8.3     diag
   10      0.185D-04      0.273D-05      -267.90427094    561.635812   -0.53096    1.03776    1.73990    9      1.0      9.3     orth
   11      0.764D-05      0.118D-05      -267.90427097    561.636273   -0.53072    1.03792    1.74006    9      0.8     10.1     diag
   12      0.348D-05      0.639D-06      -267.90427098    561.635911   -0.53071    1.03791    1.74004    0      0.7     10.8     orth

 Final occupancy:  21

 !RHF STATE  1.1 Energy              -267.904270979955
 Nuclear energy                       185.62484681
 One-electron energy                 -734.34707320
 Two-electron energy                  280.81795541
 Virial quotient                       -1.00278840
 !RHF STATE  1.1 Dipole moment         -0.53071046     1.03790604     1.74004223
 Dipole moment /Debye                  -1.34884310     2.63792122     4.42245653

 Orbital energies:

         1.1          2.1          3.1          4.1          5.1          6.1          7.1          8.1          9.1         10.1
    -20.532909   -20.498943   -11.387334   -11.304931   -11.244742    -1.312547    -1.266794    -1.039388    -0.959178    -0.814954

        11.1         12.1         13.1         14.1         15.1         16.1         17.1         18.1         19.1         20.1
     -0.708873    -0.656195    -0.619602    -0.600037    -0.571906    -0.560733    -0.518832    -0.500905    -0.469359    -0.405951

        21.1         22.1         23.1
     -0.381472     0.010872     0.048325


 HOMO     21.1    -0.381472 =     -10.3804eV
 LUMO     22.1     0.010872 =       0.2958eV
 LUMO-HOMO         0.392344 =      10.6762eV


 **********************************************************************************************************************************
 DATASETS  * FILE   NREC   LENGTH (MB)   RECORD NAMES
              1      18       32.01       500      610      700      900      950      970     1000      129      960     1100   
                                          VAR    BASINP    GEOM    SYMINP    ZMAT    AOBASIS   BASIS     P2S    ABASIS      S 
                                         1400     1410     1200     1210     1080     1600     1650     1700   
                                           T        V       H0       H01     AOSYM     SMH    MOLCAS    OPER   

              2       4        4.17       700     1000      520     2100   
                                         GEOM     BASIS   MCVARS     RHF  

 PROGRAMS   *        TOTAL     DF-HF       INT
 CPU TIMES  *        11.47     10.80      0.58
 REAL TIME  *        14.94 SEC
 DISK USED  *        77.26 MB
 **********************************************************************************************************************************


 PROGRAM * CCSD (Closed-shell coupled cluster)     Authors: C. Hampel, H.-J. Werner, 1991, M. Deegan, P.J. Knowles, 1992

                    Density fitting coupled cluster methods (ITF), W. Gyorffy, 2015

                                  CCSD-F12 implementation by  H.-J. Werner, 2007

                   Density fitting integral evaluation by F.R. Manby, 2003,2007, G. Knizia, 2010


 Basis set CC-PVDZ-F12/OPTRI generated.  Number of basis functions:   506 

 Generating union of orbital basis set VDZ-F12 and corresponding OPTRI basis

 Basis set CC-PVDZ-F12_CABS generated.   Number of basis functions:   728 
 Basis set AUG-CC-PVDZ/MP2FIT generated. Number of basis functions:   544 

 Convergence thresholds:  THRVAR = 1.00D-08  THRDEN = 1.00D-06

 CCSD(T)     terms to be evaluated (factor= 1.000)


 Number of core orbitals:           5 (   5 )
 Number of closed-shell orbitals:  16 (  16 )
 Number of external orbitals:     201 ( 201 )

 Molecular orbitals read from record     2100.2  Type=RHF/CANONICAL (state 1.1)
 Ansatz: F12/3*C(FIX,HY1)
 F12b method
 Enter DF-CCSD-F12 [ITF]

 Geminal basis:    OPTFULL  GEM_TYPE=SLATER  BETA=1.0  NGEM=6

 Optimizing Gaussian exponents for each gem_beta

 Geminal optimization for beta= 1.0000
 Weight function:   m=0, omega= 1.4646

 Augmented Hessian optimization of geminal fit. Trust ratio= 0.40000
 Convergence reached after   2 iterations. Final gradient= 8.53D-16, Step= 4.26D-06, Delta= 1.28D-09

 Alpha:                 0.19532     0.81920     2.85917     9.50073    35.69989   197.79328
 Coeff:                 0.27070     0.30552     0.18297     0.10986     0.06810     0.04224



  Reference energy:                  -267.904270979955
  MP2 correlation energy:              -0.959454583230

  !MP2 total energy:                 -268.863725563184

  DF-MP2-F12 energy corrections:
  ==============================
  Approx.                                    Total
  DF-MP2-F12/3*C(DX,FIX):              -0.199095849588
  DF-MP2-F12/3*C(FIX):                 -0.187842878779

  DF-MP2-F12 correlation energies:
  ================================
  Approx.                                    Ecorr
  DF-MP2:                              -0.959454583230
  DF-MP2-F12/3*C(DX,FIX):              -1.158550432818
  DF-MP2-F12/3*C(FIX):                 -1.147297462009

  Reference energy:                  -267.904270979955
  MP2-F12 correlation energy:          -1.147297462009

  !MP2-F12 total energy:             -269.051568441964
  MP2 correlation energy:              -0.959454583230
  PT2 correlation energy:              -0.959454584154

 Transformed 3-ext integrals are computed and stored!

 Transformed 4-ext integrals are computed and stored!

 ITER.      SQ.NORM     CORR.ENERGY   TOTAL ENERGY   ENERGY CHANGE        DEN1      VAR(S)    VAR(P)  DIIS     TIME
   1      1.29497470    -0.96494532  -268.86921630    -0.00549074     0.03053094  1.70e-02  7.46e-03  1  1    65.27
   2      1.32619825    -0.96498631  -268.86925729    -0.00004099    -0.03067051  3.19e-04  2.84e-03  2  2   131.13
   3      1.34479774    -0.96704198  -268.87131296    -0.00205568    -0.00163271  2.78e-04  3.30e-04  3  3   196.64
   4      1.36537986    -0.96789839  -268.87216937    -0.00085640    -0.00395882  4.75e-05  1.57e-04  4  4   262.22
   5      1.38122993    -0.96813838  -268.87240936    -0.00023999    -0.00156052  2.42e-05  4.33e-05  5  5   328.66
   6      1.39525288    -0.96809651  -268.87236749     0.00004187    -0.00079266  4.59e-06  1.17e-05  6  0   392.77
   7      1.40429327    -0.96800989  -268.87228087     0.00008662    -0.00033435  1.50e-06  2.04e-06  6  1   457.15
   8      1.40676614    -0.96797085  -268.87224183     0.00003904    -0.00002862  2.19e-07  5.35e-07  6  2   523.74
   9      1.40840246    -0.96795354  -268.87222452     0.00001731    -0.00003844  5.82e-08  9.32e-08  6  3   588.98
  10      1.40872427    -0.96795084  -268.87222182     0.00000270    -0.00000928  5.82e-09  2.27e-08  6  4   651.89
  11      1.40888492    -0.96795024  -268.87222122     0.00000060    -0.00000405  1.51e-09  3.83e-09         711.64

 Norm of t1 vector:      0.28851475     S-energy:      0.00000539   T1 diagnostic:  0.03606434

 Time per iteration:                     64.70 sec


  F12b       energy corrections:
  ==============================
  CC-F12b:                              0.026439011926
 RESULTS
 =======

  Reference energy:                  -267.904270979955
  CCSD correlation energy:             -0.967950239169
 !CCSD total energy:                 -268.872221219124

  Triples (T) contribution:            -0.046624046816
  Total correlation energy:            -1.014574285985
  CCSD[T] total energy:              -268.926194493009
  CCSD(T) total energy:              -268.918845265940
  DF-MP2-F12 energy corrections:
  ==============================
  Approx.                                    Total
  DF-MP2-F12/3*C(DX,FIX):              -0.199095849588
  DF-MP2-F12/3*C(FIX):                 -0.187842878779

  DF-MP2-F12 correlation energies:
  ================================
  Approx.                                    Ecorr
  DF-MP2:                              -0.959454583230
  DF-MP2-F12/3*C(DX,FIX):              -1.158550432818
  DF-MP2-F12/3*C(FIX):                 -1.147297462009

  Reference energy:                  -267.904270979955
  MP2-F12 correlation energy:          -1.147297462009

  !MP2-F12 total energy:             -269.051568441964

  CCSD(T)-F12 correlation energies:
  ================================
  Approx.                                    Ecorr
  CCSD(T):                             -1.014574285985
  CCSD(T)-F12/3*C(DX,FIX):             -1.213670135573
  CCSD(T)-F12/3*C(FIX):                -1.175978152839

  Reference energy:                  -267.904270979955
  CCSD(T)-F12 correlation energy:      -1.175978152839

  !CCSD(T)-F12 total energy:         -269.080249132793





 **********************************************************************************************************************************
 DATASETS  * FILE   NREC   LENGTH (MB)   RECORD NAMES
              1      19       32.01       500      610      700      900      950      970     1000      129      960     1100   
                                          VAR    BASINP    GEOM    SYMINP    ZMAT    AOBASIS   BASIS     P2S    ABASIS      S 
                                         1400     1410     1200     1210     1080     1600     1650     1700      960(1)
                                           T        V       H0       H01     AOSYM     SMH    MOLCAS    OPER    ABASIS    

              2       4        4.17       700     1000      520     2100   
                                         GEOM     BASIS   MCVARS     RHF  

 PROGRAMS   *        TOTAL   CCSD(T)     DF-HF       INT
 CPU TIMES  *      1912.91   1901.44     10.80      0.58
 REAL TIME  *      2165.47 SEC
 DISK USED  *        23.88 GB
 **********************************************************************************************************************************

 DF-CCSD(T)-F12/cc-pVDZ-F12 energy=   -269.080249132793

  DF-CCSD(T)-F12           DF-HF
   -269.08024913   -267.90427098
 **********************************************************************************************************************************
 Molpro calculation terminated
