
 Primary working directories    : /var/tmp/pbs.368047.bp1/molpro.txecr0m1um
 Secondary working directories  : /var/tmp/pbs.368047.bp1/molpro.txecr0m1um
 Wavefunction directory         : /home/lb17101/molpro_test/inp/
 Main file repository           : /home/lb17101/molpro_test/inp/

 id        : uob

 Nodes                         nprocs
 bp1-13-13-02.data.bp.acrc.priv    1

 Using customized tuning parameters: mindgm=1; mindgv=20; mindgc=4; mindgr=1; noblas=0; minvec=7
 default implementation of scratch files=df  


 Variables initialized (934), CPU time= 0.00 sec
 geomtyp=xyz
 nosym
 noorient
 geometry={
  O      -0.569356242485      -1.748572643149       1.737085666936
  C       0.178818435219      -1.015762878364       0.949776982317
  C      -0.629408444014      -0.623300480967      -0.306963551361
  C      -0.408729771521       0.767747716824      -0.950699627876
  C      -0.723431928250       1.491446419359      -1.865172044092
  C       1.140146872876       0.155135093506       1.020761333596
  C       1.072635271827       1.255330257013      -0.229381330626
  H      -0.298590026327      -2.262723213259       2.719805701992
  H       1.681819710860      -1.387576444948       1.250481995273
  H      -1.395106787473      -0.818342777001       0.185899048949
  H       0.003152818919      -1.177419568376      -1.021762268618
  H      -1.675581866827       3.148248954193      -1.243005229722
  H       2.631508079484       1.482886151400      -0.883366282307
 }
 basis=vtz-f12
 df-hf
 df-ccsd(t)-f12,cabs_singles=1,scale_trip=1
 Commands  initialized (763), CPU time= 0.00 sec, 617 directives.
 Default parameters read. Elapsed time= 0.10 sec

 Checking input...
 Passed
1


                                         ***  PROGRAM SYSTEM MOLPRO  ***
                                       Copyright, TTI GmbH Stuttgart, 2015
                                    Version 2019.2 linked Oct 25 2019 22:50:27


 **********************************************************************************************************************************
 LABEL *                                                                                 
  64 bit serial version                                                                  DATE: 24-Sep-20          TIME: 21:44:30  
 **********************************************************************************************************************************

 SHA1:             8dbd9ae1082e4ce945b0f27595c9eb2d4aa09004
 **********************************************************************************************************************************
 SETTING GEOMTYP        =    XYZ

 Variable memory set to 4096000000 words,  buffer space 

 ZSYMEL=NOSYM

 SETTING BASIS          =    VTZ-F12


 Recomputing integrals since basis changed


 Using spherical harmonics

 Library entry O      S cc-pVTZ-F12          selected for orbital group  1
 Library entry O      P cc-pVTZ-F12          selected for orbital group  1
 Library entry O      D cc-pVTZ-F12          selected for orbital group  1
 Library entry O      F cc-pVTZ-F12          selected for orbital group  1
 Library entry C      S cc-pVTZ-F12          selected for orbital group  2
 Library entry C      P cc-pVTZ-F12          selected for orbital group  2
 Library entry C      D cc-pVTZ-F12          selected for orbital group  2
 Library entry C      F cc-pVTZ-F12          selected for orbital group  2
 Library entry H      S cc-pVTZ-F12          selected for orbital group  3
 Library entry H      P cc-pVTZ-F12          selected for orbital group  3
 Library entry H      D cc-pVTZ-F12          selected for orbital group  3


 PROGRAM * SEWARD (Integral evaluation for generally contracted gaussian basis sets)     Author: Roland Lindh, 1990

 Geometry written to block  1 of record 700


 Point group  C1  



 ATOMIC COORDINATES

 NR  ATOM    CHARGE       X              Y              Z

   1  O       8.00   -1.075927366   -3.304323404    3.282616165
   2  C       6.00    0.337917869   -1.919513648    1.794818376
   3  C       6.00   -1.189409580   -1.177867202   -0.580077042
   4  C       6.00   -0.772387327    1.450832918   -1.796561923
   5  C       6.00   -1.367088214    2.818425262   -3.524664339
   6  C       6.00    2.154565332    0.293162839    1.928959359
   7  C       6.00    2.026986895    2.372230382   -0.433467893
   8  H       1.00   -0.564253373   -4.275927169    5.139687889
   9  H       1.00    3.178178644   -2.622139458    2.363068495
  10  H       1.00   -2.636369743   -1.546443725    0.351298289
  11  H       1.00    0.005957964   -2.225000518   -1.930850852
  12  H       1.00   -3.166390828    5.949328295   -2.348939456
  13  H       1.00    4.972829565    2.802248700   -1.669320341

 Bond lengths in Bohr (Angstrom)

 1-2  2.475923802  1-8  2.157438188  2-3  2.919400081  2-6  2.866031933  3-4  2.926398357
     ( 1.310202452)     ( 1.141667123)     ( 1.544879992)     ( 1.516638785)     ( 1.548583321)

  3-10  1.759830212   3-11  2.085660958   4- 5  2.282611645   4- 7  3.247074785   6- 7  3.149581024
       ( 0.931262043)       ( 1.103684249)       ( 1.207906064)       ( 1.718277978)       ( 1.666686502)

 Bond angles

  1-2-3  109.40056831   1-2-6  139.96370606   2-1-8  129.32363958   2-3-4  119.45936295

  2- 3-10   86.92845054   2- 3-11   95.70832433   2- 6- 7  116.66965104   3- 2- 6   99.99466046

  3- 4- 5  144.66344162   3- 4- 7  101.72686895   4- 3-10  121.68869663   4- 3-11   95.74446534

  4- 7- 6   99.35105491   5- 4- 7  111.86455737  10- 3-11  135.14160936

 NUCLEAR CHARGE:                   50
 NUMBER OF PRIMITIVE AOS:         630
 NUMBER OF SYMMETRY AOS:          561
 NUMBER OF CONTRACTIONS:          479   (  479A   )
 NUMBER OF CORE ORBITALS:           7   (    7A   )
 NUMBER OF VALENCE ORBITALS:       34   (   34A   )


 NUCLEAR REPULSION ENERGY  253.28926289


 Eigenvalues of metric

         1 0.173E-04 0.290E-04 0.473E-04 0.702E-04 0.826E-04 0.836E-04 0.894E-04 0.102E-03


 OPERATOR DM      FOR CENTER  0  COORDINATES:    0.000000    0.000000    0.000000


 **********************************************************************************************************************************
 DATASETS  * FILE   NREC   LENGTH (MB)   RECORD NAMES
              1      18       38.59       500      610      700      900      950      970     1000      129      960     1100   
                                          VAR    BASINP    GEOM    SYMINP    ZMAT    AOBASIS   BASIS     P2S    ABASIS      S 
                                         1400     1410     1200     1210     1080     1600     1650     1700   
                                           T        V       H0       H01     AOSYM     SMH    MOLCAS    OPER   

 PROGRAMS   *        TOTAL       INT
 CPU TIMES  *         0.78      0.70
 REAL TIME  *         4.09 SEC
 DISK USED  *        39.21 MB
 **********************************************************************************************************************************


 PROGRAM * RHF-SCF (CLOSED SHELL)       Authors: W. Meyer, H.-J. Werner


 NUMBER OF ELECTRONS:      25+   25-    SPACE SYMMETRY=1    SPIN SYMMETRY: Singlet 
 CONVERGENCE THRESHOLDS:    1.00E-05 (Density)    1.00E-07 (Energy)
 INTEGRAL THRESHOLDS:       1.00E-11 (Initial)    1.00E-11 (Final)
 MAX. NUMBER OF ITERATIONS:       60
 INTERPOLATION TYPE:            DIIS
 INTERPOLATION STEPS:              2 (START)      1 (STEP)
 LEVEL SHIFTS:                  0.00 (CLOSED)  0.00 (OPEN) 




 Basis set AUG-CC-PVTZ/JKFIT generated.  Number of basis functions:   1004 

 Orbital guess generated from atomic densities. Full valence occupancy:   41
 Using density fitting in orbital guess

 Coulomb and exchange fitting
 Thresholds for fitting:       THRAO_COUL= 1.0D-14    THRAO_EXCH= 1.0D-12    THRMO= 1.0D-11    THRPROD= 1.0D-11    THRASM= 1.0D-11
                               THR2HLF=    1.0D-11

 Molecular orbital dump at record        2100.2

 Initial occupancy:  25

 ITERATION   DDIFF            GRAD            ENERGY        2-EL.EN.            DIPOLE MOMENTS         DIIS   CPU(IT)  CPU(TOT)  ORB.
    1      0.000D+00      0.000D+00      -304.65682020    717.464255   -0.22370   -1.70624    1.95725    0      3.9      8.4     start
    2      0.000D+00      0.289D-02      -304.76238825    710.351822   -1.32786   -0.56115   -0.09043    1      3.9     12.3     diag
    3      0.463D-02      0.199D-02      -304.81338696    713.039130   -0.67405   -1.29214    1.03557    2      3.6     15.9     diag
    4      0.205D-02      0.564D-03      -304.82386364    713.086936   -0.80548   -1.22376    0.61312    3      3.5     19.4     diag
    5      0.928D-03      0.342D-03      -304.82764157    712.724574   -0.76925   -1.28773    0.73812    4      3.6     23.1     diag
    6      0.475D-03      0.145D-03      -304.82943633    712.725673   -0.76679   -1.33848    0.69527    5      3.6     26.7     diag
    7      0.454D-03      0.760D-04      -304.82989004    712.701801   -0.73454   -1.35310    0.71245    6      3.5     30.2     diag
    8      0.237D-03      0.420D-04      -304.83002635    712.705461   -0.73740   -1.36772    0.70124    7      3.6     33.7     diag
    9      0.127D-03      0.241D-04      -304.83007747    712.684951   -0.72467   -1.37063    0.70279    8      3.5     37.2     diag
   10      0.910D-04      0.135D-04      -304.83009745    712.699917   -0.72060   -1.37408    0.69963    9      3.5     40.7     orth
   11      0.634D-04      0.693D-05      -304.83010318    712.689998   -0.71796   -1.37587    0.69872    9      3.5     44.2     diag
   12      0.389D-04      0.369D-05      -304.83010474    712.693376   -0.71705   -1.37682    0.69734    9      3.5     47.7     diag
   13      0.207D-04      0.188D-05      -304.83010507    712.693334   -0.71656   -1.37767    0.69738    9      3.5     51.2     diag
   14      0.886D-05      0.891D-06      -304.83010513    712.692787   -0.71698   -1.37758    0.69700    9      3.5     54.7     diag
   15      0.274D-05      0.604D-06      -304.83010515    712.693110   -0.71696   -1.37761    0.69729    0      3.5     58.2     orth

 Final occupancy:  25

 !RHF STATE  1.1 Energy              -304.830105149319
 Nuclear energy                       253.28926289
 One-electron energy                 -914.46592284
 Two-electron energy                  356.34655481
 Virial quotient                       -1.00357821
 !RHF STATE  1.1 Dipole moment         -0.71696033    -1.37760703     0.69729348
 Dipole moment /Debye                  -1.82221204    -3.50129847     1.77222715

 Orbital energies:

         1.1          2.1          3.1          4.1          5.1          6.1          7.1          8.1          9.1         10.1
    -20.644339   -11.373430   -11.335856   -11.304932   -11.295813   -11.283343   -11.278776    -1.442352    -1.153638    -1.066148

        11.1         12.1         13.1         14.1         15.1         16.1         17.1         18.1         19.1         20.1
     -0.950073    -0.867314    -0.781322    -0.726774    -0.673203    -0.633053    -0.594665    -0.594218    -0.512255    -0.481490

        21.1         22.1         23.1         24.1         25.1         26.1         27.1
     -0.455627    -0.444711    -0.385095    -0.324725    -0.283253    -0.043894     0.021286


 HOMO     25.1    -0.283253 =      -7.7077eV
 LUMO     26.1    -0.043894 =      -1.1944eV
 LUMO-HOMO         0.239359 =       6.5133eV


 **********************************************************************************************************************************
 DATASETS  * FILE   NREC   LENGTH (MB)   RECORD NAMES
              1      18       38.59       500      610      700      900      950      970     1000      129      960     1100   
                                          VAR    BASINP    GEOM    SYMINP    ZMAT    AOBASIS   BASIS     P2S    ABASIS      S 
                                         1400     1410     1200     1210     1080     1600     1650     1700   
                                           T        V       H0       H01     AOSYM     SMH    MOLCAS    OPER   

              2       4        8.55       700     1000      520     2100   
                                         GEOM     BASIS   MCVARS     RHF  

 PROGRAMS   *        TOTAL     DF-HF       INT
 CPU TIMES  *        59.07     58.29      0.70
 REAL TIME  *        66.65 SEC
 DISK USED  *       207.02 MB
 **********************************************************************************************************************************


 PROGRAM * CCSD (Closed-shell coupled cluster)     Authors: C. Hampel, H.-J. Werner, 1991, M. Deegan, P.J. Knowles, 1992

                    Density fitting coupled cluster methods (ITF), W. Gyorffy, 2015

                                  CCSD-F12 implementation by  H.-J. Werner, 2007

                   Density fitting integral evaluation by F.R. Manby, 2003,2007, G. Knizia, 2010


 Basis set CC-PVTZ-F12/OPTRI generated.  Number of basis functions:   771 

 Generating union of orbital basis set VTZ-F12 and corresponding OPTRI basis

 Basis set CC-PVTZ-F12_CABS generated.   Number of basis functions:   1250 
 Basis set AUG-CC-PVTZ/MP2FIT generated. Number of basis functions:   1018 

 Convergence thresholds:  THRVAR = 1.00D-08  THRDEN = 1.00D-06

 CCSD(T)     terms to be evaluated (factor= 1.000)


 Number of core orbitals:           7 (   7 )
 Number of closed-shell orbitals:  18 (  18 )
 Number of external orbitals:     454 ( 454 )

 Molecular orbitals read from record     2100.2  Type=RHF/CANONICAL (state 1.1)
 Ansatz: F12/3*C(FIX,HY1)
 F12b method
 Enter DF-CCSD-F12 [ITF]

 Geminal basis:    OPTFULL  GEM_TYPE=SLATER  BETA=1.0  NGEM=6

 Optimizing Gaussian exponents for each gem_beta

 Geminal optimization for beta= 1.0000
 Weight function:   m=0, omega= 1.4646

 Augmented Hessian optimization of geminal fit. Trust ratio= 0.40000
 Convergence reached after   2 iterations. Final gradient= 8.53D-16, Step= 4.26D-06, Delta= 1.28D-09

 Alpha:                 0.19532     0.81920     2.85917     9.50073    35.69989   197.79328
 Coeff:                 0.27070     0.30552     0.18297     0.10986     0.06810     0.04224



  Reference energy:                  -304.830105149318
  MP2 correlation energy:              -1.306387057937

  !MP2 total energy:                 -306.136492207254

  DF-MP2-F12 energy corrections:
  ==============================
  Approx.                                    Total
  DF-MP2-F12/3*C(DX,FIX):              -0.094398394842
  DF-MP2-F12/3*C(FIX):                 -0.091184158064

  DF-MP2-F12 correlation energies:
  ================================
  Approx.                                    Ecorr
  DF-MP2:                              -1.306387057937
  DF-MP2-F12/3*C(DX,FIX):              -1.400785452779
  DF-MP2-F12/3*C(FIX):                 -1.397571216000

  Reference energy:                  -304.830105149318
  MP2-F12 correlation energy:          -1.397571216000

  !MP2-F12 total energy:             -306.227676365318
  MP2 correlation energy:              -1.306387057937
  PT2 correlation energy:              -1.306387061464

 Transformed 3-ext integrals are computed and stored!

 Transformed 4-ext integrals are computed and stored!

 ITER.      SQ.NORM     CORR.ENERGY   TOTAL ENERGY   ENERGY CHANGE        DEN1      VAR(S)    VAR(P)  DIIS     TIME
   1      1.50016721    -1.30006598  -306.13017113     0.00632108     0.06329564  2.32e-02  1.82e-02  1  1  2109.78
   2      1.57882163    -1.30595537  -306.13606052    -0.00588939    -0.05183337  1.45e-03  5.69e-03  2  2  4211.45
   3      1.60780775    -1.30753781  -306.13764296    -0.00158244    -0.00053396  4.44e-04  1.15e-03  3  3  6296.38
   4      1.64537494    -1.30920751  -306.13931265    -0.00166970    -0.00791177  7.50e-05  4.85e-04  4  4  8397.75
   5      1.67229445    -1.30946095  -306.13956610    -0.00025344    -0.00320803  2.82e-05  1.39e-04  5  5 10468.62
   6      1.69115090    -1.30934829  -306.13945344     0.00011266    -0.00165203  5.67e-06  3.88e-05  6  0 12559.50
   7      1.70144620    -1.30921611  -306.13932125     0.00013218    -0.00064225  1.91e-06  8.89e-06  6  1 14654.30
   8      1.70607306    -1.30913711  -306.13924226     0.00007900    -0.00016143  3.64e-07  2.11e-06  6  2 16696.87
   9      1.70813458    -1.30911326  -306.13921841     0.00002385    -0.00005654  1.42e-07  5.82e-07  6  3 18807.91
  10      1.70864226    -1.30910905  -306.13921420     0.00000421    -0.00000911  5.75e-08  1.94e-07  6  4 20916.29
  11      1.70903670    -1.30910755  -306.13921270     0.00000150    -0.00000961  2.09e-08  7.35e-08  6  5 23045.77
  12      1.70908525    -1.30910816  -306.13921331    -0.00000061    -0.00000005  9.70e-09  2.77e-08  6  0 25181.90
  13      1.70917005    -1.30910856  -306.13921371    -0.00000040    -0.00000201  2.50e-09  9.32e-09  6  1 27294.46
  14      1.70915673    -1.30910911  -306.13921426    -0.00000055     0.00000148  9.58e-10  2.92e-09       29465.08

 Norm of t1 vector:      0.30300986     S-energy:      0.00000296   T1 diagnostic:  0.03571005

 Time per iteration:                   2104.67 sec


  F12b       energy corrections:
  ==============================
  CC-F12b:                              0.019272337850
 RESULTS
 =======

  Reference energy:                  -304.830105149318
  CCSD correlation energy:             -1.309109109380
 !CCSD total energy:                 -306.139214258697

  Triples (T) contribution:            -0.098241761980
  Total correlation energy:            -1.407350871360
  CCSD[T] total energy:              -306.243463036352
  CCSD(T) total energy:              -306.237456020678
  DF-MP2-F12 energy corrections:
  ==============================
  Approx.                                    Total
  DF-MP2-F12/3*C(DX,FIX):              -0.094398394842
  DF-MP2-F12/3*C(FIX):                 -0.091184158064

  DF-MP2-F12 correlation energies:
  ================================
  Approx.                                    Ecorr
  DF-MP2:                              -1.306387057937
  DF-MP2-F12/3*C(DX,FIX):              -1.400785452779
  DF-MP2-F12/3*C(FIX):                 -1.397571216000

  Reference energy:                  -304.830105149318
  MP2-F12 correlation energy:          -1.397571216000

  !MP2-F12 total energy:             -306.227676365318

  CCSD(T)-F12 correlation energies:
  ================================
  Approx.                                    Ecorr
  CCSD(T):                             -1.407350871360
  CCSD(T)-F12/3*C(DX,FIX):             -1.501749266202
  CCSD(T)-F12/3*C(FIX):                -1.479262691574

  Reference energy:                  -304.830105149318
  CCSD(T)-F12 correlation energy:      -1.479262691574

  !CCSD(T)-F12 total energy:         -306.309367840891





 **********************************************************************************************************************************
 DATASETS  * FILE   NREC   LENGTH (MB)   RECORD NAMES
              1      19       38.62       500      610      700      900      950      970     1000      129      960     1100   
                                          VAR    BASINP    GEOM    SYMINP    ZMAT    AOBASIS   BASIS     P2S    ABASIS      S 
                                         1400     1410     1200     1210     1080     1600     1650     1700      960(1)
                                           T        V       H0       H01     AOSYM     SMH    MOLCAS    OPER    ABASIS    

              2       4        8.55       700     1000      520     2100   
                                         GEOM     BASIS   MCVARS     RHF  

 PROGRAMS   *        TOTAL   CCSD(T)     DF-HF       INT
 CPU TIMES  *     56386.99  56327.92     58.29      0.70
 REAL TIME  *     89402.52 SEC
 DISK USED  *       450.84 GB
 **********************************************************************************************************************************

 DF-CCSD(T)-F12/cc-pVTZ-F12 energy=   -306.309367840891

  DF-CCSD(T)-F12           DF-HF
   -306.30936784   -304.83010515
 **********************************************************************************************************************************
 Molpro calculation terminated
