
 Primary working directories    : /var/tmp/pbs.368052.bp1/molpro.SRg1BaS27H
 Secondary working directories  : /var/tmp/pbs.368052.bp1/molpro.SRg1BaS27H
 Wavefunction directory         : /home/lb17101/molpro_test/inp/
 Main file repository           : /home/lb17101/molpro_test/inp/

 id        : uob

 Nodes                         nprocs
 bp1-01-07-04.data.bp.acrc.priv    1

 Using customized tuning parameters: mindgm=1; mindgv=20; mindgc=4; mindgr=1; noblas=0; minvec=7
 default implementation of scratch files=df  


 Variables initialized (934), CPU time= 0.00 sec
 geomtyp=xyz
 nosym
 noorient
 geometry={
  C      -0.817124855411       0.998242096877      -0.038005469421
  C      -0.742289382837      -0.086060754173       0.938653644988
  C      -0.060603669924      -1.077261243972      -0.095619822645
  C       0.013953029998       0.133711463341      -0.748832025017
  C       1.488781348196       0.059484089190      -0.009036812664
  H       0.004824529448       2.332791668128       0.036398485982
  H      -1.794724660781       1.470313844631      -0.144207304721
  H      -1.341902870124      -0.718262014807       1.976798147010
  H      -1.325094497402      -0.900611336356      -0.361968635468
  H       1.641315808890      -1.371737862009      -0.428197711288
  H      -0.047153237189       0.827566270426      -1.895202472652
  H       1.785329431971       0.012842878670       0.694300109470
  H       1.413259695302      -0.560187468823      -1.089388984879
 }
 basis=vtz-f12
 df-hf
 df-ccsd(t)-f12,cabs_singles=1,scale_trip=1
 Commands  initialized (763), CPU time= 0.00 sec, 617 directives.
 Default parameters read. Elapsed time= 0.10 sec

 Checking input...
 Passed
1


                                         ***  PROGRAM SYSTEM MOLPRO  ***
                                       Copyright, TTI GmbH Stuttgart, 2015
                                    Version 2019.2 linked Oct 25 2019 22:50:27


 **********************************************************************************************************************************
 LABEL *                                                                                 
  64 bit serial version                                                                  DATE: 24-Sep-20          TIME: 23:11:22  
 **********************************************************************************************************************************

 SHA1:             8dbd9ae1082e4ce945b0f27595c9eb2d4aa09004
 **********************************************************************************************************************************
 SETTING GEOMTYP        =    XYZ

 Variable memory set to 4096000000 words,  buffer space 

 ZSYMEL=NOSYM

 SETTING BASIS          =    VTZ-F12


 Recomputing integrals since basis changed


 Using spherical harmonics

 Library entry C      S cc-pVTZ-F12          selected for orbital group  1
 Library entry C      P cc-pVTZ-F12          selected for orbital group  1
 Library entry C      D cc-pVTZ-F12          selected for orbital group  1
 Library entry C      F cc-pVTZ-F12          selected for orbital group  1
 Library entry H      S cc-pVTZ-F12          selected for orbital group  2
 Library entry H      P cc-pVTZ-F12          selected for orbital group  2
 Library entry H      D cc-pVTZ-F12          selected for orbital group  2


 PROGRAM * SEWARD (Integral evaluation for generally contracted gaussian basis sets)     Author: Roland Lindh, 1990

 Geometry written to block  1 of record 700


 Point group  C1  



 ATOMIC COORDINATES

 NR  ATOM    CHARGE       X              Y              Z

   1  C       6.00   -1.544142186    1.886404169   -0.071819928
   2  C       6.00   -1.402723639   -0.162631255    1.773798315
   3  C       6.00   -0.114524338   -2.035728716   -0.180695277
   4  C       6.00    0.026367405    0.252678045   -1.415087441
   5  C       6.00    2.813389007    0.112408637   -0.017077101
   6  H       1.00    0.009117039    4.408337358    0.068783170
   7  H       1.00   -3.391538078    2.778490484   -0.272512311
   8  H       1.00   -2.535828910   -1.357318494    3.735607101
   9  H       1.00   -2.504065689   -1.701908770   -0.684021587
  10  H       1.00    3.101637363   -2.592208874   -0.809176401
  11  H       1.00   -0.089106704    1.563873601   -3.581413624
  12  H       1.00    3.373783669    0.024269523    1.312037055
  13  H       1.00    2.670673767   -1.058600894   -2.058646825

 Bond lengths in Bohr (Angstrom)

 1-2  2.761313469  1-4  2.634374505  1-7  2.061302259  2-3  2.997998788  2-4  3.519058878
     ( 1.461224160)     ( 1.394050953)     ( 1.090794181)     ( 1.586472637)     ( 1.862205762)

 2-8  2.561229952  3-4  2.603916282  3-5  3.635098562  3-9  2.464686795  4-5  3.121153285
     ( 1.355344523)     ( 1.377933155)     ( 1.923611318)     ( 1.304256084)     ( 1.651643190)

  4-11  2.534864333   5-12  1.445114224   5-13  2.357888441
       ( 1.341392438)       ( 0.764721514)       ( 1.247740829)

 Bond angles

  1-2-3   92.85939083   1-2-4   47.74354845   1-2-8  146.66069493   1-4-2   50.87822210

  1- 4- 3  105.72606356   1- 4- 5  109.37916805   1- 4-11   95.03842218   2- 1- 4   81.37822945

  2-1-7  115.60205851   2-3-4   77.48002756   2-3-5   86.99280309   2-3-9   68.40320831

  2- 4- 3   56.27102862   2- 4- 5   87.21618883   2- 4-11  144.78315190   3- 2- 4   46.24894381

  3- 2- 8  113.45462268   3- 4- 5   78.25737025   3- 4-11  149.00975739   3- 5- 4   44.53418277

  3- 5-12  108.52387693   3- 5-13   67.59153230   4- 1- 7  138.85447652   4- 2- 8  158.24980067

  4- 3- 5   57.20844698   4- 3- 9   80.59681791   4- 5-12  139.55005955   4- 5-13   65.19363266

  5- 3- 9  135.23920966   5- 4-11  116.53328414  12- 5-13  142.14121380

 NUCLEAR CHARGE:                   38
 NUMBER OF PRIMITIVE AOS:         528
 NUMBER OF SYMMETRY AOS:          475
 NUMBER OF CONTRACTIONS:          409   (  409A   )
 NUMBER OF CORE ORBITALS:           5   (    5A   )
 NUMBER OF VALENCE ORBITALS:       28   (   28A   )


 NUCLEAR REPULSION ENERGY  175.95998823


 Eigenvalues of metric

         1 0.201E-04 0.411E-04 0.434E-04 0.651E-04 0.734E-04 0.828E-04 0.974E-04 0.122E-03


 OPERATOR DM      FOR CENTER  0  COORDINATES:    0.000000    0.000000    0.000000


 **********************************************************************************************************************************
 DATASETS  * FILE   NREC   LENGTH (MB)   RECORD NAMES
              1      18       36.32       500      610      700      900      950      970     1000      129      960     1100   
                                          VAR    BASINP    GEOM    SYMINP    ZMAT    AOBASIS   BASIS     P2S    ABASIS      S 
                                         1400     1410     1200     1210     1080     1600     1650     1700   
                                           T        V       H0       H01     AOSYM     SMH    MOLCAS    OPER   

 PROGRAMS   *        TOTAL       INT
 CPU TIMES  *         1.16      1.04
 REAL TIME  *         4.42 SEC
 DISK USED  *        36.91 MB
 **********************************************************************************************************************************


 PROGRAM * RHF-SCF (CLOSED SHELL)       Authors: W. Meyer, H.-J. Werner


 NUMBER OF ELECTRONS:      19+   19-    SPACE SYMMETRY=1    SPIN SYMMETRY: Singlet 
 CONVERGENCE THRESHOLDS:    1.00E-05 (Density)    1.00E-07 (Energy)
 INTEGRAL THRESHOLDS:       1.00E-11 (Initial)    1.00E-11 (Final)
 MAX. NUMBER OF ITERATIONS:       60
 INTERPOLATION TYPE:            DIIS
 INTERPOLATION STEPS:              2 (START)      1 (STEP)
 LEVEL SHIFTS:                  0.00 (CLOSED)  0.00 (OPEN) 




 Basis set AUG-CC-PVTZ/JKFIT generated.  Number of basis functions:   888 

 Orbital guess generated from atomic densities. Full valence occupancy:   33
 Using density fitting in orbital guess

 Coulomb and exchange fitting
 Thresholds for fitting:       THRAO_COUL= 1.0D-14    THRAO_EXCH= 1.0D-12    THRMO= 1.0D-11    THRPROD= 1.0D-11    THRASM= 1.0D-11
                               THR2HLF=    1.0D-11

 Molecular orbital dump at record        2100.2

 Initial occupancy:  19

 ITERATION   DDIFF            GRAD            ENERGY        2-EL.EN.            DIPOLE MOMENTS         DIIS   CPU(IT)  CPU(TOT)  ORB.
    1      0.000D+00      0.000D+00      -193.05288888    479.203844   -0.17739    0.03245   -0.84044    0      2.8      5.7     start
    2      0.000D+00      0.268D-02      -193.12549838    473.222549    0.09249    0.27688    0.20684    1      2.5      8.2     diag
    3      0.340D-02      0.143D-02      -193.14200181    476.501259   -0.16444    0.01582   -0.19731    2      2.6     10.8     diag
    4      0.134D-02      0.477D-03      -193.14606598    475.673683   -0.11958    0.13124   -0.03342    3      2.4     13.1     diag
    5      0.667D-03      0.207D-03      -193.14690442    475.700558   -0.15072    0.08040   -0.04871    4      2.4     15.6     diag
    6      0.253D-03      0.891D-04      -193.14732437    475.738802   -0.17955    0.11483   -0.01435    5      2.5     18.0     diag
    7      0.221D-03      0.674D-04      -193.14753086    475.712629   -0.19211    0.11588   -0.00567    6      2.4     20.5     diag
    8      0.164D-03      0.356D-04      -193.14763938    475.726277   -0.21412    0.12842    0.01047    7      2.5     22.9     diag
    9      0.154D-03      0.207D-04      -193.14767296    475.724267   -0.22605    0.13781    0.02061    8      2.6     25.6     diag
   10      0.105D-03      0.773D-05      -193.14767743    475.721333   -0.23209    0.14021    0.02546    9      2.5     28.1     orth
   11      0.396D-04      0.309D-05      -193.14767785    475.722851   -0.23337    0.14161    0.02615    9      2.5     30.6     diag
   12      0.117D-04      0.135D-05      -193.14767792    475.721392   -0.23388    0.14130    0.02642    9      2.5     33.1     diag
   13      0.363D-05      0.691D-06      -193.14767793    475.722047   -0.23378    0.14141    0.02637    0      2.4     35.5     orth

 Final occupancy:  19

 !RHF STATE  1.1 Energy              -193.147677931153
 Nuclear energy                       175.95998823
 One-electron energy                 -606.96868988
 Two-electron energy                  237.86102373
 Virial quotient                       -0.99689229
 !RHF STATE  1.1 Dipole moment         -0.23378032     0.14140790     0.02637421
 Dipole moment /Debye                  -0.59417139     0.35939950     0.06703216

 Orbital energies:

         1.1          2.1          3.1          4.1          5.1          6.1          7.1          8.1          9.1         10.1
    -11.314426   -11.292112   -11.290754   -11.255937   -11.249953    -1.269661    -1.038274    -0.916172    -0.871312    -0.741808

        11.1         12.1         13.1         14.1         15.1         16.1         17.1         18.1         19.1         20.1
     -0.702229    -0.634786    -0.574550    -0.534844    -0.470563    -0.450780    -0.411120    -0.351890    -0.252148     0.035887

        21.1
      0.039803


 HOMO     19.1    -0.252148 =      -6.8613eV
 LUMO     20.1     0.035887 =       0.9765eV
 LUMO-HOMO         0.288035 =       7.8378eV


 **********************************************************************************************************************************
 DATASETS  * FILE   NREC   LENGTH (MB)   RECORD NAMES
              1      18       36.32       500      610      700      900      950      970     1000      129      960     1100   
                                          VAR    BASINP    GEOM    SYMINP    ZMAT    AOBASIS   BASIS     P2S    ABASIS      S 
                                         1400     1410     1200     1210     1080     1600     1650     1700   
                                           T        V       H0       H01     AOSYM     SMH    MOLCAS    OPER   

              2       4        7.04       700     1000      520     2100   
                                         GEOM     BASIS   MCVARS     RHF  

 PROGRAMS   *        TOTAL     DF-HF       INT
 CPU TIMES  *        36.69     35.53      1.04
 REAL TIME  *        42.89 SEC
 DISK USED  *       140.31 MB
 **********************************************************************************************************************************


 PROGRAM * CCSD (Closed-shell coupled cluster)     Authors: C. Hampel, H.-J. Werner, 1991, M. Deegan, P.J. Knowles, 1992

                    Density fitting coupled cluster methods (ITF), W. Gyorffy, 2015

                                  CCSD-F12 implementation by  H.-J. Werner, 2007

                   Density fitting integral evaluation by F.R. Manby, 2003,2007, G. Knizia, 2010


 Basis set CC-PVTZ-F12/OPTRI generated.  Number of basis functions:   703 

 Generating union of orbital basis set VTZ-F12 and corresponding OPTRI basis

 Basis set CC-PVTZ-F12_CABS generated.   Number of basis functions:   1112 
 Basis set AUG-CC-PVTZ/MP2FIT generated. Number of basis functions:   898 

 Convergence thresholds:  THRVAR = 1.00D-08  THRDEN = 1.00D-06

 CCSD(T)     terms to be evaluated (factor= 1.000)


 Number of core orbitals:           5 (   5 )
 Number of closed-shell orbitals:  14 (  14 )
 Number of external orbitals:     390 ( 390 )

 Molecular orbitals read from record     2100.2  Type=RHF/CANONICAL (state 1.1)
 Ansatz: F12/3*C(FIX,HY1)
 F12b method
 Enter DF-CCSD-F12 [ITF]

 Geminal basis:    OPTFULL  GEM_TYPE=SLATER  BETA=1.0  NGEM=6

 Optimizing Gaussian exponents for each gem_beta

 Geminal optimization for beta= 1.0000
 Weight function:   m=0, omega= 1.4646

 Augmented Hessian optimization of geminal fit. Trust ratio= 0.40000
 Convergence reached after   2 iterations. Final gradient= 8.53D-16, Step= 4.26D-06, Delta= 1.28D-09

 Alpha:                 0.19532     0.81920     2.85917     9.50073    35.69989   197.79328
 Coeff:                 0.27070     0.30552     0.18297     0.10986     0.06810     0.04224



  Reference energy:                  -193.147677931151
  MP2 correlation energy:              -0.967222955166

  !MP2 total energy:                 -194.114900886318

  DF-MP2-F12 energy corrections:
  ==============================
  Approx.                                    Total
  DF-MP2-F12/3*C(DX,FIX):              -0.066559977946
  DF-MP2-F12/3*C(FIX):                 -0.065110098988

  DF-MP2-F12 correlation energies:
  ================================
  Approx.                                    Ecorr
  DF-MP2:                              -0.967222955166
  DF-MP2-F12/3*C(DX,FIX):              -1.033782933113
  DF-MP2-F12/3*C(FIX):                 -1.032333054155

  Reference energy:                  -193.147677931151
  MP2-F12 correlation energy:          -1.032333054155

  !MP2-F12 total energy:             -194.180010985306
  MP2 correlation energy:              -0.967222955166
  PT2 correlation energy:              -0.967222957467

 Transformed 3-ext integrals are computed and stored!

 Transformed 4-ext integrals are computed and stored!

 ITER.      SQ.NORM     CORR.ENERGY   TOTAL ENERGY   ENERGY CHANGE        DEN1      VAR(S)    VAR(P)  DIIS     TIME
   1      1.35939568    -0.96515070  -194.11282863     0.00207226     0.03891874  1.21e-02  1.06e-02  1  1   740.53
   2      1.40455802    -0.96855963  -194.11623756    -0.00340893    -0.03377407  6.28e-04  2.46e-03  2  2  1478.65
   3      1.41985573    -0.96994063  -194.11761856    -0.00138100    -0.00100703  2.70e-04  4.68e-04  3  3  2224.87
   4      1.43911148    -0.97065959  -194.11833752    -0.00071896    -0.00474835  2.33e-05  1.87e-04  4  4  2967.96
   5      1.45175275    -0.97080813  -194.11848606    -0.00014854    -0.00158098  2.79e-05  4.88e-05  5  5  3707.25
   6      1.46252707    -0.97079191  -194.11846984     0.00001623    -0.00086633  2.47e-06  1.57e-05  6  0  4440.31
   7      1.46857247    -0.97073958  -194.11841752     0.00005232    -0.00028678  2.00e-06  3.29e-06  6  1  5174.46
   8      1.47211332    -0.97068793  -194.11836587     0.00005165    -0.00006232  1.34e-07  8.85e-07  6  2  5914.79
   9      1.47369353    -0.97066572  -194.11834365     0.00002222    -0.00002007  5.35e-08  2.28e-07  6  3  6643.43
  10      1.47418941    -0.97065516  -194.11833309     0.00001055    -0.00000189  5.31e-09  5.68e-08  6  4  7396.24
  11      1.47448136    -0.97065005  -194.11832798     0.00000511    -0.00000038  7.81e-10  1.01e-08  6  5  8163.71
  12      1.47452407    -0.97064853  -194.11832646     0.00000152     0.00000093  1.22e-10  1.73e-09  6  0  8948.95
  13      1.47454495    -0.97064800  -194.11832593     0.00000053     0.00000114  2.68e-11  3.46e-10        9724.69

 Norm of t1 vector:      0.24205221     S-energy:      0.00000264   T1 diagnostic:  0.03234559

 Time per iteration:                    748.06 sec


  F12b       energy corrections:
  ==============================
  CC-F12b:                              0.014166065633
 RESULTS
 =======

  Reference energy:                  -193.147677931151
  CCSD correlation energy:             -0.970648003112
 !CCSD total energy:                 -194.118325934263

  Triples (T) contribution:            -0.064205942850
  Total correlation energy:            -1.034853945962
  CCSD[T] total energy:              -194.186196695053
  CCSD(T) total energy:              -194.182531877113
  DF-MP2-F12 energy corrections:
  ==============================
  Approx.                                    Total
  DF-MP2-F12/3*C(DX,FIX):              -0.066559977946
  DF-MP2-F12/3*C(FIX):                 -0.065110098988

  DF-MP2-F12 correlation energies:
  ================================
  Approx.                                    Ecorr
  DF-MP2:                              -0.967222955166
  DF-MP2-F12/3*C(DX,FIX):              -1.033782933113
  DF-MP2-F12/3*C(FIX):                 -1.032333054155

  Reference energy:                  -193.147677931151
  MP2-F12 correlation energy:          -1.032333054155

  !MP2-F12 total energy:             -194.180010985306

  CCSD(T)-F12 correlation energies:
  ================================
  Approx.                                    Ecorr
  CCSD(T):                             -1.034853945962
  CCSD(T)-F12/3*C(DX,FIX):             -1.101413923908
  CCSD(T)-F12/3*C(FIX):                -1.085797979317

  Reference energy:                  -193.147677931151
  CCSD(T)-F12 correlation energy:      -1.085797979317

  !CCSD(T)-F12 total energy:         -194.233475910468





 **********************************************************************************************************************************
 DATASETS  * FILE   NREC   LENGTH (MB)   RECORD NAMES
              1      19       36.34       500      610      700      900      950      970     1000      129      960     1100   
                                          VAR    BASINP    GEOM    SYMINP    ZMAT    AOBASIS   BASIS     P2S    ABASIS      S 
                                         1400     1410     1200     1210     1080     1600     1650     1700      960(1)
                                           T        V       H0       H01     AOSYM     SMH    MOLCAS    OPER    ABASIS    

              2       4        7.04       700     1000      520     2100   
                                         GEOM     BASIS   MCVARS     RHF  

 PROGRAMS   *        TOTAL   CCSD(T)     DF-HF       INT
 CPU TIMES  *     18526.07  18489.37     35.53      1.04
 REAL TIME  *     85739.62 SEC
 DISK USED  *       242.24 GB
 **********************************************************************************************************************************

 DF-CCSD(T)-F12/cc-pVTZ-F12 energy=   -194.233475910468

  DF-CCSD(T)-F12           DF-HF
   -194.23347591   -193.14767793
 **********************************************************************************************************************************
 Molpro calculation terminated
