
 Primary working directories    : /var/tmp/pbs.398367.bp1/molpro.Ogu00K0wT3
 Secondary working directories  : /var/tmp/pbs.398367.bp1/molpro.Ogu00K0wT3
 Wavefunction directory         : /home/lb17101/molpro_test/inp/
 Main file repository           : /home/lb17101/molpro_test/inp/

 id        : uob

 Nodes                         nprocs
 bp1-11-15-01.data.bp.acrc.priv    1

 Using customized tuning parameters: mindgm=1; mindgv=20; mindgc=4; mindgr=1; noblas=0; minvec=7
 default implementation of scratch files=df  


 Variables initialized (934), CPU time= 0.00 sec
 geomtyp=xyz
 nosym
 noorient
 geometry={
 C       2.682553142765      -1.439438488647      -0.661046844118
 C       1.943855644586      -0.231765356275      -0.093682523204
 C       0.214003469184       0.800627472803       0.703680408037
 C      -0.272761558326      -0.082655788263       1.716016419494
 C      -0.783026666974       1.019409382396      -0.183699731572
 C      -2.437479436159       1.639341869019       0.547052656472
 C      -1.095843845065      -0.587960645040      -1.347071314975
 H       2.668871645538      -3.017723564592      -1.164885544584
 H       3.688844315079      -1.056204110642      -1.589804766081
 H       1.708153655008      -1.403899383845      -1.577207273869
 H       1.747952994639      -0.377012812560       1.281012291903
 H       2.138182319334       0.217769833242      -1.272152822352
 H       0.267994238462      -0.243965199797      -0.972520432611
 H       0.147259620911      -1.583197887363       1.448767398382
 H      -0.544480461986       0.439143127216       2.822159196983
 H      -1.852931601343       0.238259806771       1.810667160475
 H      -1.233712084174       1.383762226753      -1.491973354623
 H      -3.877201474844       1.925908017288       0.125626163703
 H      -2.976558319304       1.095695877634       1.546747540189
 H      -2.075916852998       2.840743486441       0.399549121191
 H      -1.718655188426      -0.759872452733      -2.441159919966
 H      -0.314343654904      -1.300766424846      -1.886688127806
 H      -2.333583469738      -1.375180840608      -1.110818580992
 }
 basis=avtz
 df-hf
 df-ccsd
 Commands  initialized (763), CPU time= 0.01 sec, 617 directives.
 Default parameters read. Elapsed time= 0.08 sec

 Checking input...
 Passed
1


                                         ***  PROGRAM SYSTEM MOLPRO  ***
                                       Copyright, TTI GmbH Stuttgart, 2015
                                    Version 2019.2 linked Oct 25 2019 22:50:27


 **********************************************************************************************************************************
 LABEL *                                                                                 
  64 bit serial version                                                                  DATE: 30-Sep-20          TIME: 04:58:38  
 **********************************************************************************************************************************

 SHA1:             8dbd9ae1082e4ce945b0f27595c9eb2d4aa09004
 **********************************************************************************************************************************
 SETTING GEOMTYP        =    XYZ

 Variable memory set to 8192000000 words,  buffer space 

 ZSYMEL=NOSYM

 SETTING BASIS          =    AVTZ


 Recomputing integrals since basis changed


 Using spherical harmonics

 Library entry C      S aug-cc-pVTZ          selected for orbital group  1
 Library entry C      P aug-cc-pVTZ          selected for orbital group  1
 Library entry C      D aug-cc-pVTZ          selected for orbital group  1
 Library entry C      F aug-cc-pVTZ          selected for orbital group  1
 Library entry H      S aug-cc-pVTZ          selected for orbital group  2
 Library entry H      P aug-cc-pVTZ          selected for orbital group  2
 Library entry H      D aug-cc-pVTZ          selected for orbital group  2


 PROGRAM * SEWARD (Integral evaluation for generally contracted gaussian basis sets)     Author: Roland Lindh, 1990

 Geometry written to block  1 of record 700


 Point group  C1  



 ATOMIC COORDINATES

 NR  ATOM    CHARGE       X              Y              Z

   1  C       6.00    5.069290754   -2.720144517   -1.249197491
   2  C       6.00    3.673354794   -0.437973049   -0.177034312
   3  C       6.00    0.404407946    1.512966651    1.329763250
   4  C       6.00   -0.515444643   -0.156196802    3.242801058
   5  C       6.00   -1.479705949    1.926404542   -0.347142182
   6  C       6.00   -4.606168569    3.097907157    1.033779696
   7  C       6.00   -2.070844742   -1.111084591   -2.545595856
   8  H       1.00    5.043436472   -5.702671057   -2.201314646
   9  H       1.00    6.970905472   -1.995936501   -3.004295599
  10  H       1.00    3.227942587   -2.652985342   -2.980489789
  11  H       1.00    3.303152438   -0.712450961    2.420762394
  12  H       1.00    4.040578988    0.411525343   -2.404020423
  13  H       1.00    0.506435714   -0.461027412   -1.837797268
  14  H       1.00    0.278280353   -2.991810408    2.737773601
  15  H       1.00   -1.028918953    0.829860240    5.333107962
  16  H       1.00   -3.501533254    0.450245781    3.421665036
  17  H       1.00   -2.331377956    2.614931630   -2.819421025
  18  H       1.00   -7.326848917    3.639438694    0.237399043
  19  H       1.00   -5.624880017    2.070565125    2.922929235
  20  H       1.00   -3.922914310    5.368227180    0.755038412
  21  H       1.00   -3.247787609   -1.435950825   -4.613123675
  22  H       1.00   -0.594023417   -2.458092295   -3.565323844
  23  H       1.00   -4.409833647   -2.598715160   -2.099142892

 Bond lengths in Bohr (Angstrom)

  1- 2  2.882096060   1- 9  2.687189080   1-10  2.528328786   2-11  2.638358511   2-12  2.411631868
       ( 1.525139555)       ( 1.421999223)       ( 1.337933975)       ( 1.396159198)       ( 1.276180626)

  3- 4  2.700360916   3- 5  2.555939727   4-15  2.367561470   5- 6  3.613050252   5- 7  3.795916735
       ( 1.428969458)       ( 1.352545056)       ( 1.252859575)       ( 1.911943855)       ( 2.008712631)

  5-17  2.703992870   6-19  2.379514792   6-20  2.387233983   7-13  2.750623152   7-21  2.401125541
       ( 1.430891405)       ( 1.259185001)       ( 1.263269821)       ( 1.455567088)       ( 1.270620917)

  7-22  2.243942101   7-23  2.807709752
       ( 1.187443022)       ( 1.485776016)

 Bond angles

  1- 2-11  110.60185353   1- 2-12   82.04758984   2- 1- 9  111.85874161   2- 1-10   83.16318716

  3- 4-15  116.22597298   3- 5- 6  116.07621213   3- 5- 7  111.42838688   3- 5-17  150.83590357

  4- 3- 5  108.28084015   5- 6-19  122.27009448   5- 6-20   90.92071704   5- 7-13   61.04910822

  5- 7-21  133.10170697   5- 7-22  129.87009688   5- 7-23  117.49141387   6- 5- 7  110.24646695

  6- 5-17   89.67563526   7- 5-17   67.98650207   9- 1-10   93.49611345  11- 2-12  165.29611886

 13- 7-21  135.46484656  13- 7-22   69.03125817  13- 7-23  149.86679319  19- 6-20  128.74334918

 21- 7-22   81.37758029  21- 7-23   69.93397644  22- 7-23  107.60617187

 NUCLEAR CHARGE:                   58
 NUMBER OF PRIMITIVE AOS:         901
 NUMBER OF SYMMETRY AOS:          806
 NUMBER OF CONTRACTIONS:          690   (  690A   )
 NUMBER OF CORE ORBITALS:           7   (    7A   )
 NUMBER OF VALENCE ORBITALS:       44   (   44A   )


 NUCLEAR REPULSION ENERGY  298.55278751


 Eigenvalues of metric

         1 0.418E-05 0.508E-05 0.519E-05 0.759E-05 0.101E-04 0.111E-04 0.121E-04 0.141E-04


 OPERATOR DM      FOR CENTER  0  COORDINATES:    0.000000    0.000000    0.000000


 **********************************************************************************************************************************
 DATASETS  * FILE   NREC   LENGTH (MB)   RECORD NAMES
              1      18       47.71       500      610      700      900      950      970     1000      129      960     1100   
                                          VAR    BASINP    GEOM    SYMINP    ZMAT    AOBASIS   BASIS     P2S    ABASIS      S 
                                         1400     1410     1200     1210     1080     1600     1650     1700   
                                           T        V       H0       H01     AOSYM     SMH    MOLCAS    OPER   

 PROGRAMS   *        TOTAL       INT
 CPU TIMES  *         1.57      1.49
 REAL TIME  *         5.05 SEC
 DISK USED  *        48.55 MB
 **********************************************************************************************************************************


 PROGRAM * RHF-SCF (CLOSED SHELL)       Authors: W. Meyer, H.-J. Werner


 NUMBER OF ELECTRONS:      29+   29-    SPACE SYMMETRY=1    SPIN SYMMETRY: Singlet 
 CONVERGENCE THRESHOLDS:    1.00E-05 (Density)    1.00E-07 (Energy)
 INTEGRAL THRESHOLDS:       1.00E-12 (Initial)    1.00E-12 (Final)
 MAX. NUMBER OF ITERATIONS:       60
 INTERPOLATION TYPE:            DIIS
 INTERPOLATION STEPS:              2 (START)      1 (STEP)
 LEVEL SHIFTS:                  0.00 (CLOSED)  0.00 (OPEN) 




 Basis set AUG-CC-PVTZ/JKFIT generated.  Number of basis functions:   1464 

 Orbital guess generated from atomic densities. Full valence occupancy:   51
 Using density fitting in orbital guess

 Coulomb and exchange fitting
 Thresholds for fitting:       THRAO_COUL= 1.0D-15    THRAO_EXCH= 1.0D-13    THRMO= 1.0D-12    THRPROD= 1.0D-12    THRASM= 1.0D-12
                               THR2HLF=    1.0D-12

 Molecular orbital dump at record        2100.2

 Initial occupancy:  29

 ITERATION   DDIFF            GRAD            ENERGY        2-EL.EN.            DIPOLE MOMENTS         DIIS   CPU(IT)  CPU(TOT)  ORB.
    1      0.000D+00      0.000D+00      -272.87267668    778.146323   -0.54933   -1.61897   -2.91738    0     10.1     21.8     start
    2      0.000D+00      0.211D-02      -272.96386001    769.062518   -0.04734    0.73063    0.29843    1     10.1     31.9     diag
    3      0.310D-02      0.171D-02      -273.03066748    774.538437   -0.39874   -0.19413   -1.01807    2     10.1     42.0     diag
    4      0.158D-02      0.411D-03      -273.03949995    773.651173   -0.40199   -0.01762   -0.88641    3     11.5     53.4     diag
    5      0.621D-03      0.180D-03      -273.04140188    773.607213   -0.45426    0.03389   -0.78572    4     11.6     65.0     diag
    6      0.276D-03      0.813D-04      -273.04225477    773.608104   -0.51255    0.07012   -0.77936    5     10.1     75.1     diag
    7      0.206D-03      0.505D-04      -273.04264087    773.573071   -0.55291    0.08159   -0.76076    6      9.9     85.1     diag
    8      0.134D-03      0.334D-04      -273.04292694    773.563105   -0.60709    0.09507   -0.75680    7      9.9     95.0     diag
    9      0.146D-03      0.211D-04      -273.04305580    773.576255   -0.63551    0.10371   -0.74445    8      9.9    104.9     diag
   10      0.115D-03      0.117D-04      -273.04309387    773.560706   -0.65269    0.10375   -0.74311    9      9.9    114.8     orth
   11      0.653D-04      0.641D-05      -273.04310482    773.559184   -0.65439    0.10284   -0.74190    9      9.9    124.8     diag
   12      0.399D-04      0.354D-05      -273.04310705    773.561989   -0.65393    0.10147   -0.74160    9      9.9    134.7     diag
   13      0.157D-04      0.175D-05      -273.04310771    773.558552   -0.65177    0.10021   -0.74206    9      9.9    144.6     diag
   14      0.950D-05      0.967D-06      -273.04310784    773.560042   -0.65095    0.09970   -0.74249    9      9.9    154.5     diag
   15      0.345D-05      0.442D-06      -273.04310788    773.559529   -0.65050    0.09947   -0.74255    9     12.4    166.9     diag
   16      0.198D-05      0.252D-06      -273.04310788    773.559765   -0.65045    0.09946   -0.74264    0     10.5    177.4     orth

 Final occupancy:  29

 !RHF STATE  1.1 Energy              -273.043107880177
 Nuclear energy                       298.55278751
 One-electron energy                 -958.37577797
 Two-electron energy                  386.77988257
 Virial quotient                       -1.01225393
 !RHF STATE  1.1 Dipole moment         -0.65045026     0.09945654    -0.74264371
 Dipole moment /Debye                  -1.65317136     0.25277675    -1.88748841

 Orbital energies:

         1.1          2.1          3.1          4.1          5.1          6.1          7.1          8.1          9.1         10.1
    -11.377270   -11.339709   -11.335623   -11.334359   -11.312803   -11.279610   -11.270173    -1.116881    -1.015994    -0.931197

        11.1         12.1         13.1         14.1         15.1         16.1         17.1         18.1         19.1         20.1
     -0.892368    -0.850359    -0.736259    -0.670806    -0.626958    -0.607285    -0.588043    -0.558742    -0.535744    -0.506925

        21.1         22.1         23.1         24.1         25.1         26.1         27.1         28.1         29.1         30.1
     -0.495074    -0.483050    -0.454633    -0.415524    -0.394428    -0.367405    -0.339534    -0.293014    -0.278237     0.009839

        31.1
      0.023280


 HOMO     29.1    -0.278237 =      -7.5712eV
 LUMO     30.1     0.009839 =       0.2677eV
 LUMO-HOMO         0.288076 =       7.8389eV


 **********************************************************************************************************************************
 DATASETS  * FILE   NREC   LENGTH (MB)   RECORD NAMES
              1      18       47.71       500      610      700      900      950      970     1000      129      960     1100   
                                          VAR    BASINP    GEOM    SYMINP    ZMAT    AOBASIS   BASIS     P2S    ABASIS      S 
                                         1400     1410     1200     1210     1080     1600     1650     1700   
                                           T        V       H0       H01     AOSYM     SMH    MOLCAS    OPER   

              2       4       14.68       700     1000      520     2100   
                                         GEOM     BASIS   MCVARS     RHF  

 PROGRAMS   *        TOTAL     DF-HF       INT
 CPU TIMES  *       179.06    177.49      1.49
 REAL TIME  *       186.61 SEC
 DISK USED  *       483.25 MB
 **********************************************************************************************************************************


 PROGRAM * CCSD (Closed-shell coupled cluster)     Authors: C. Hampel, H.-J. Werner, 1991, M. Deegan, P.J. Knowles, 1992

                    Density fitting coupled cluster methods (ITF), W. Gyorffy, 2015


 Basis set AUG-CC-PVTZ/MP2FIT generated. Number of basis functions:   1478 

 Convergence thresholds:  THRVAR = 1.00D-08  THRDEN = 1.00D-06

 Number of core orbitals:           7 (   7 )
 Number of closed-shell orbitals:  22 (  22 )
 Number of external orbitals:     661 ( 661 )

 Molecular orbitals read from record     2100.2  Type=RHF/CANONICAL (state 1.1)
 Enter DF-CCSD [ITF]

  Reference energy:                  -273.043107880178

  MP2 correlation energy:              -1.483014938908
  MP2 total energy:                  -274.526122819086

 Transformed 3-ext integrals are computed and stored!

 Transformed 4-ext integrals are computed and stored!

 ITER.      SQ.NORM     CORR.ENERGY   TOTAL ENERGY   ENERGY CHANGE        DEN1      VAR(S)    VAR(P)  DIIS     TIME
   1      1.66100828    -1.52076986  -274.56387774    -0.03775492     0.02999802  2.05e-02  2.20e-02  1  1 11755.56
   2      1.74495131    -1.52765455  -274.57076243    -0.00688469    -0.05937401  1.78e-03  4.96e-03  2  2 24033.86
   3      1.77154102    -1.53000352  -274.57311140    -0.00234897    -0.00358439  3.60e-04  9.81e-04  3  3 36127.30
   4      1.80058055    -1.53113680  -274.57424468    -0.00113328    -0.00971219  2.92e-05  2.81e-04  4  4 47736.91
   5      1.81731732    -1.53117322  -274.57428110    -0.00003642    -0.00336992  2.56e-05  5.20e-05  5  5 59225.48
   6      1.82653902    -1.53112066  -274.57422854     0.00005255    -0.00133954  7.21e-06  1.91e-05  6  0 70862.66
   7      1.83116373    -1.53109250  -274.57420038     0.00002817    -0.00038807  6.71e-06  7.68e-06  6  1 82348.21
   8      1.83607655    -1.53112032  -274.57422820    -0.00002782    -0.00016253  2.51e-06  4.10e-06  6  2 94305.31
   9      1.84041410    -1.53113508  -274.57424296    -0.00001476    -0.00007848  1.45e-06  1.75e-06  6  3106436.71
  10      1.84477979    -1.53113261  -274.57424049     0.00000247    -0.00006960  3.55e-07  6.72e-07  6  4118057.18
  11      1.84728219    -1.53112424  -274.57423212     0.00000837    -0.00001943  1.26e-07  2.03e-07  6  5130142.94
  12      1.84814784    -1.53111629  -274.57422417     0.00000795    -0.00000577  3.41e-08  5.91e-08  6  0142058.13
  13      1.84854323    -1.53111447  -274.57422235     0.00000182     0.00000174  9.17e-09  1.77e-08  6  1153592.85
  14      1.84858267    -1.53111456  -274.57422244    -0.00000010     0.00000213  3.13e-09  5.24e-09      166666.74

 Norm of t1 vector:      0.26279055     S-energy:      0.00000012   T1 diagnostic:  0.02801357

 Time per iteration:                  11904.84 sec

 RESULTS
 =======

  Reference energy:                  -273.043107880178
  CCSD correlation energy:             -1.531114562813
 !CCSD total energy:                 -274.574222442991





 **********************************************************************************************************************************
 DATASETS  * FILE   NREC   LENGTH (MB)   RECORD NAMES
              1      19       47.72       500      610      700      900      950      970     1000      129      960     1100   
                                          VAR    BASINP    GEOM    SYMINP    ZMAT    AOBASIS   BASIS     P2S    ABASIS      S 
                                         1400     1410     1200     1210     1080     1600     1650     1700      960(1)
                                           T        V       H0       H01     AOSYM     SMH    MOLCAS    OPER    ABASIS    

              2       4       14.68       700     1000      520     2100   
                                         GEOM     BASIS   MCVARS     RHF  

 PROGRAMS   *        TOTAL   DF-CCSD     DF-HF       INT
 CPU TIMES  *    175764.55 175585.49    177.49      1.49
 REAL TIME  *    253315.40 SEC
 DISK USED  *       869.65 GB
 **********************************************************************************************************************************

 DF-CCSD/aug-cc-pVTZ energy=   -274.574222442991

         DF-CCSD           DF-HF
   -274.57422244   -273.04310788
 **********************************************************************************************************************************
 Molpro calculation terminated
