
 Primary working directories    : /var/tmp/pbs.368533.bp1/molpro.X0Nrv4LOwc
 Secondary working directories  : /var/tmp/pbs.368533.bp1/molpro.X0Nrv4LOwc
 Wavefunction directory         : /home/lb17101/molpro_test/inp/lowmem/
 Main file repository           : /home/lb17101/molpro_test/inp/lowmem/

 id        : uob

 Nodes                         nprocs
 bp1-13-16-01.data.bp.acrc.priv    1

 Using customized tuning parameters: mindgm=1; mindgv=20; mindgc=4; mindgr=1; noblas=0; minvec=7
 default implementation of scratch files=df  


 Variables initialized (934), CPU time= 0.00 sec
 geomtyp=xyz
 nosym
 noorient
 geometry={
 C       2.682553142765      -1.439438488647      -0.661046844118
 C       1.943855644586      -0.231765356275      -0.093682523204
 C       0.214003469184       0.800627472803       0.703680408037
 C      -0.272761558326      -0.082655788263       1.716016419494
 C      -0.783026666974       1.019409382396      -0.183699731572
 C      -2.437479436159       1.639341869019       0.547052656472
 C      -1.095843845065      -0.587960645040      -1.347071314975
 H       2.668871645538      -3.017723564592      -1.164885544584
 H       3.688844315079      -1.056204110642      -1.589804766081
 H       1.708153655008      -1.403899383845      -1.577207273869
 H       1.747952994639      -0.377012812560       1.281012291903
 H       2.138182319334       0.217769833242      -1.272152822352
 H       0.267994238462      -0.243965199797      -0.972520432611
 H       0.147259620911      -1.583197887363       1.448767398382
 H      -0.544480461986       0.439143127216       2.822159196983
 H      -1.852931601343       0.238259806771       1.810667160475
 H      -1.233712084174       1.383762226753      -1.491973354623
 H      -3.877201474844       1.925908017288       0.125626163703
 H      -2.976558319304       1.095695877634       1.546747540189
 H      -2.075916852998       2.840743486441       0.399549121191
 H      -1.718655188426      -0.759872452733      -2.441159919966
 H      -0.314343654904      -1.300766424846      -1.886688127806
 H      -2.333583469738      -1.375180840608      -1.110818580992
 }
 basis=vtz-f12
 df-hf
 pno-lccsd(t)-f12,cabs_singles=1,scale_trip=1,domopt=tight
 Commands  initialized (763), CPU time= 0.01 sec, 617 directives.
 Default parameters read. Elapsed time= 0.07 sec

 Checking input...
 Passed
1


                                         ***  PROGRAM SYSTEM MOLPRO  ***
                                       Copyright, TTI GmbH Stuttgart, 2015
                                    Version 2019.2 linked Oct 25 2019 22:50:27


 **********************************************************************************************************************************
 LABEL *                                                                                 
  64 bit serial version                                                                  DATE: 23-Sep-20          TIME: 04:03:58  
 **********************************************************************************************************************************

 SHA1:             8dbd9ae1082e4ce945b0f27595c9eb2d4aa09004
 **********************************************************************************************************************************
 SETTING GEOMTYP        =    XYZ

 Variable memory set to 1024000000 words,  buffer space 

 ZSYMEL=NOSYM

 SETTING BASIS          =    VTZ-F12


 Recomputing integrals since basis changed


 Using spherical harmonics

 Library entry C      S cc-pVTZ-F12          selected for orbital group  1
 Library entry C      P cc-pVTZ-F12          selected for orbital group  1
 Library entry C      D cc-pVTZ-F12          selected for orbital group  1
 Library entry C      F cc-pVTZ-F12          selected for orbital group  1
 Library entry H      S cc-pVTZ-F12          selected for orbital group  2
 Library entry H      P cc-pVTZ-F12          selected for orbital group  2
 Library entry H      D cc-pVTZ-F12          selected for orbital group  2


 PROGRAM * SEWARD (Integral evaluation for generally contracted gaussian basis sets)     Author: Roland Lindh, 1990

 Geometry written to block  1 of record 700


 Point group  C1  



 ATOMIC COORDINATES

 NR  ATOM    CHARGE       X              Y              Z

   1  C       6.00    5.069290754   -2.720144517   -1.249197491
   2  C       6.00    3.673354794   -0.437973049   -0.177034312
   3  C       6.00    0.404407946    1.512966651    1.329763250
   4  C       6.00   -0.515444643   -0.156196802    3.242801058
   5  C       6.00   -1.479705949    1.926404542   -0.347142182
   6  C       6.00   -4.606168569    3.097907157    1.033779696
   7  C       6.00   -2.070844742   -1.111084591   -2.545595856
   8  H       1.00    5.043436472   -5.702671057   -2.201314646
   9  H       1.00    6.970905472   -1.995936501   -3.004295599
  10  H       1.00    3.227942587   -2.652985342   -2.980489789
  11  H       1.00    3.303152438   -0.712450961    2.420762394
  12  H       1.00    4.040578988    0.411525343   -2.404020423
  13  H       1.00    0.506435714   -0.461027412   -1.837797268
  14  H       1.00    0.278280353   -2.991810408    2.737773601
  15  H       1.00   -1.028918953    0.829860240    5.333107962
  16  H       1.00   -3.501533254    0.450245781    3.421665036
  17  H       1.00   -2.331377956    2.614931630   -2.819421025
  18  H       1.00   -7.326848917    3.639438694    0.237399043
  19  H       1.00   -5.624880017    2.070565125    2.922929235
  20  H       1.00   -3.922914310    5.368227180    0.755038412
  21  H       1.00   -3.247787609   -1.435950825   -4.613123675
  22  H       1.00   -0.594023417   -2.458092295   -3.565323844
  23  H       1.00   -4.409833647   -2.598715160   -2.099142892

 Bond lengths in Bohr (Angstrom)

  1- 2  2.882096060   1- 9  2.687189080   1-10  2.528328786   2-11  2.638358511   2-12  2.411631868
       ( 1.525139555)       ( 1.421999223)       ( 1.337933975)       ( 1.396159198)       ( 1.276180626)

  3- 4  2.700360916   3- 5  2.555939727   4-15  2.367561470   5- 6  3.613050252   5- 7  3.795916735
       ( 1.428969458)       ( 1.352545056)       ( 1.252859575)       ( 1.911943855)       ( 2.008712631)

  5-17  2.703992870   6-19  2.379514792   6-20  2.387233983   7-13  2.750623152   7-21  2.401125541
       ( 1.430891405)       ( 1.259185001)       ( 1.263269821)       ( 1.455567088)       ( 1.270620917)

  7-22  2.243942101   7-23  2.807709752
       ( 1.187443022)       ( 1.485776016)

 Bond angles

  1- 2-11  110.60185353   1- 2-12   82.04758984   2- 1- 9  111.85874161   2- 1-10   83.16318716

  3- 4-15  116.22597298   3- 5- 6  116.07621213   3- 5- 7  111.42838688   3- 5-17  150.83590357

  4- 3- 5  108.28084015   5- 6-19  122.27009448   5- 6-20   90.92071704   5- 7-13   61.04910822

  5- 7-21  133.10170697   5- 7-22  129.87009688   5- 7-23  117.49141387   6- 5- 7  110.24646695

  6- 5-17   89.67563526   7- 5-17   67.98650207   9- 1-10   93.49611345  11- 2-12  165.29611886

 13- 7-21  135.46484656  13- 7-22   69.03125817  13- 7-23  149.86679319  19- 6-20  128.74334918

 21- 7-22   81.37758029  21- 7-23   69.93397644  22- 7-23  107.60617187

 NUCLEAR CHARGE:                   58
 NUMBER OF PRIMITIVE AOS:         840
 NUMBER OF SYMMETRY AOS:          761
 NUMBER OF CONTRACTIONS:          659   (  659A   )
 NUMBER OF CORE ORBITALS:           7   (    7A   )
 NUMBER OF VALENCE ORBITALS:       44   (   44A   )


 NUCLEAR REPULSION ENERGY  298.55278751


 Eigenvalues of metric

         1 0.202E-04 0.420E-04 0.478E-04 0.509E-04 0.775E-04 0.106E-03 0.119E-03 0.134E-03


 OPERATOR DM      FOR CENTER  0  COORDINATES:    0.000000    0.000000    0.000000


 **********************************************************************************************************************************
 DATASETS  * FILE   NREC   LENGTH (MB)   RECORD NAMES
              1      18       46.20       500      610      700      900      950      970     1000      129      960     1100   
                                          VAR    BASINP    GEOM    SYMINP    ZMAT    AOBASIS   BASIS     P2S    ABASIS      S 
                                         1400     1410     1200     1210     1080     1600     1650     1700   
                                           T        V       H0       H01     AOSYM     SMH    MOLCAS    OPER   

 PROGRAMS   *        TOTAL       INT
 CPU TIMES  *         0.78      0.67
 REAL TIME  *         2.02 SEC
 DISK USED  *        47.04 MB
 **********************************************************************************************************************************


 PROGRAM * RHF-SCF (CLOSED SHELL)       Authors: W. Meyer, H.-J. Werner


 NUMBER OF ELECTRONS:      29+   29-    SPACE SYMMETRY=1    SPIN SYMMETRY: Singlet 
 CONVERGENCE THRESHOLDS:    1.00E-05 (Density)    1.00E-07 (Energy)
 INTEGRAL THRESHOLDS:       1.00E-11 (Initial)    1.00E-11 (Final)
 MAX. NUMBER OF ITERATIONS:       60
 INTERPOLATION TYPE:            DIIS
 INTERPOLATION STEPS:              2 (START)      1 (STEP)
 LEVEL SHIFTS:                  0.00 (CLOSED)  0.00 (OPEN) 




 Basis set AUG-CC-PVTZ/JKFIT generated.  Number of basis functions:   1464 

 Orbital guess generated from atomic densities. Full valence occupancy:   51
 Using density fitting in orbital guess

 Coulomb and exchange fitting
 Thresholds for fitting:       THRAO_COUL= 1.0D-14    THRAO_EXCH= 1.0D-12    THRMO= 1.0D-11    THRPROD= 1.0D-11    THRASM= 1.0D-11
                               THR2HLF=    1.0D-11

 Molecular orbital dump at record        2100.2

 Initial occupancy:  29

 ITERATION   DDIFF            GRAD            ENERGY        2-EL.EN.            DIPOLE MOMENTS         DIIS   CPU(IT)  CPU(TOT)  ORB.
    1      0.000D+00      0.000D+00      -272.88383177    778.333500   -0.55433   -1.63893   -2.92830    0     11.0     24.3     start
    2      0.000D+00      0.219D-02      -272.97496875    768.969493   -0.03611    0.74023    0.30620    1     10.9     35.2     diag
    3      0.298D-02      0.178D-02      -273.04361498    774.589253   -0.39846   -0.19754   -1.02131    2     10.9     46.1     diag
    4      0.158D-02      0.424D-03      -273.05250394    773.704500   -0.40136   -0.01984   -0.88883    3     10.8     57.0     diag
    5      0.533D-03      0.187D-03      -273.05442994    773.651461   -0.45341    0.03284   -0.78813    4     10.9     67.9     diag
    6      0.249D-03      0.845D-04      -273.05529980    773.658137   -0.51304    0.06943   -0.78137    5     10.8     78.7     diag
    7      0.190D-03      0.525D-04      -273.05569278    773.619267   -0.55355    0.08138   -0.76236    6     10.7     89.4     diag
    8      0.123D-03      0.347D-04      -273.05598349    773.612071   -0.60862    0.09495   -0.75851    7     10.8    100.2     diag
    9      0.134D-03      0.220D-04      -273.05611443    773.624221   -0.63712    0.10356   -0.74616    8     10.8    111.0     diag
   10      0.106D-03      0.122D-04      -273.05615327    773.608739   -0.65455    0.10359   -0.74485    9     10.8    121.9     orth
   11      0.590D-04      0.676D-05      -273.05616473    773.607332   -0.65651    0.10275   -0.74351    9     10.8    132.6     diag
   12      0.366D-04      0.369D-05      -273.05616705    773.609996   -0.65596    0.10133   -0.74319    9     10.7    143.3     diag
   13      0.146D-04      0.182D-05      -273.05616771    773.606547   -0.65380    0.10007   -0.74367    9     10.7    154.1     diag
   14      0.854D-05      0.101D-05      -273.05616785    773.607994   -0.65295    0.09956   -0.74409    9     10.8    164.9     diag
   15      0.319D-05      0.460D-06      -273.05616789    773.607519   -0.65251    0.09932   -0.74416    9     10.8    175.7     diag
   16      0.185D-05      0.267D-06      -273.05616789    773.607714   -0.65245    0.09931   -0.74425    0     10.8    186.4     orth

 Final occupancy:  29

 !RHF STATE  1.1 Energy              -273.056167893632
 Nuclear energy                       298.55278751
 One-electron energy                 -958.41281216
 Two-electron energy                  386.80385676
 Virial quotient                       -1.01190051
 !RHF STATE  1.1 Dipole moment         -0.65245106     0.09931102    -0.74424524
 Dipole moment /Debye                  -1.65825657     0.25240691    -1.89155881

 Orbital energies:

         1.1          2.1          3.1          4.1          5.1          6.1          7.1          8.1          9.1         10.1
    -11.376416   -11.338796   -11.334573   -11.333256   -11.311785   -11.278564   -11.269116    -1.116621    -1.015763    -0.931087

        11.1         12.1         13.1         14.1         15.1         16.1         17.1         18.1         19.1         20.1
     -0.892279    -0.850274    -0.736158    -0.670854    -0.627073    -0.607389    -0.588189    -0.558897    -0.535896    -0.507077

        21.1         22.1         23.1         24.1         25.1         26.1         27.1         28.1         29.1         30.1
     -0.495211    -0.483226    -0.454800    -0.415717    -0.394601    -0.367565    -0.339737    -0.293199    -0.278429     0.012078

        31.1
      0.033436


 HOMO     29.1    -0.278429 =      -7.5764eV
 LUMO     30.1     0.012078 =       0.3287eV
 LUMO-HOMO         0.290507 =       7.9051eV


 **********************************************************************************************************************************
 DATASETS  * FILE   NREC   LENGTH (MB)   RECORD NAMES
              1      18       46.20       500      610      700      900      950      970     1000      129      960     1100   
                                          VAR    BASINP    GEOM    SYMINP    ZMAT    AOBASIS   BASIS     P2S    ABASIS      S 
                                         1400     1410     1200     1210     1080     1600     1650     1700   
                                           T        V       H0       H01     AOSYM     SMH    MOLCAS    OPER   

              2       4       13.67       700     1000      520     2100   
                                         GEOM     BASIS   MCVARS     RHF  

 PROGRAMS   *        TOTAL     DF-HF       INT
 CPU TIMES  *       187.32    186.55      0.67
 REAL TIME  *       196.60 SEC
 DISK USED  *       462.63 MB
 **********************************************************************************************************************************


 World communicator: rank 0, size 1
 Shared-memory communicator: rank 0, size 1
 Current node: rank 0, 1 node(s) in total

 Restoring occupations from record    2100.2

 Program * PNO-LCCSD(T)-F12   Authors:   H.-J. Werner (2012), M. Schwilk, Q. Ma (2016)

 Number of core orbitals:           7
 Number of closed-shell orbitals:  22
 Number of open-shell orbitals:     0
 Number of valence orbitals:       22
 Number of external orbitals:     630

 Basis set CC-PVTZ-F12/OPTRI generated.  Number of basis functions:   1181 

 Generating union of orbital basis set VTZ-F12 and corresponding OPTRI basis

 Basis set CC-PVTZ-F12_CABS generated.   Number of basis functions:   1840 
 Basis set AUG-CC-PVTZ/MP2FIT generated. Number of basis functions:   1478 

 Calculation of CABS singles correction
 ======================================


 Molecular orbitals read from record     2100.2  Type=RHF/CANONICAL (state 1.1)
 Fock matrix read from record            2100.2  Type=RHF/TOTAL (state 1.1)
 Some Fock operators are calculated for F12-singles only.

 AO(A)-basis ORBITAL           loaded. Number of functions:     659
 RI(R)-basis CC-PVTZ-F12/OPTRI loaded. Number of functions:    1181
 DF-basis AUG-CC-PVTZ/JKFIT    loaded. Number of functions:    1464

 Screening thresholds:   THRAO=  1.00D-10  THRMO=  1.00D-09  THRPROD=  1.00D-09
                         THRSW=  1.00D-05  THROV=  1.00D-12  THRAOF12= 1.00D-08

 CPU time for Fock operators                     64.12 sec

 Construction of ABS:
 Smallest eigenvalue of S          4.23E-05  (threshold= 1.00E-08)
 Ratio eigmin/eigmax               4.10E-06  (threshold= 1.00E-09)
 Smallest eigenvalue of S kept     4.23E-05  (threshold= 4.23E-05, 0 functions deleted, 1181 kept)

 Construction of CABS:
 Smallest eigenvalue of S          1.98E-07  (threshold= 1.00E-08)
 Ratio eigmin/eigmax               1.98E-07  (threshold= 1.00E-09)
 Smallest eigenvalue of S kept     1.98E-07  (threshold= 1.98E-07, 0 functions deleted, 1181 kept)

 CPU time for CABS singles                        2.13 sec

 CABS-singles contribution of  -0.00205737 patched into reference energy.
 New reference energy        -273.05822527

 Leaving lmp2-f12 by request (CABS_SINGLES < 0) after calculation of singles.

 USING TIGHT DOMAIN OPTIONS: THRLMO=0.20  IEXT=3  THROSV=  1.0D-10
                             THRPNO_LMP2=1.0D-08  THREN_LMP2=0.997
                             THRPNO_CC=  1.0D-08  THREN_CC=  0.997
                             THRTNO_T0=  1.0D-10  THRTNO_T=1.0D-07

 iclose= 0  iweak= 0  rclose= 0.00  rweak= 0.00  thrclos= 1.0D-04  thrweak= 1.0D-05  open-shell=F

 Use_GA=T  Use_PAO=T  PAO_pairdom=F  PAO_trans=T  LOCFIT= 1  LOCRI=T  EIJDIP=2  PROJECT_K=T

 Threshold for small PAO norm:    0.00D+00
 Threshold for redundancy check:  1.00D-06

 OPTIONS FOR CCSD:   method= LCCSD     icepa= -1  icepac=-1  icepaw= 2  keepcls=1  maxcls=1  maxclt=2  maxwkt=2  do_mp2w=F
                     project_k=T    project_j=ALL    idexp4_close=0

 OPTIONS FOR SINGLES IN CCSD:   isexp4=  1  isexp5= 0  isexp6= 0  project_je=T  project_s=WEAK
                                includeGE= 1  includeKEKJ= 1  includeJEKJ= 0  includeJ= 2  undress=T  project_ke=2

 Molecular orbitals read from record     2100.2  Type=RHF/CANONICAL (state 1.1)
 Orbital energies read from record       2100.2  Type=RHF/CANONICAL (state 1.1)
 Fock matrix read from record            2100.2  Type=RHF/TOTAL (state 1.1)

  Reference energy                   -273.056167893635
  CABS singles correction              -0.002057373136
  New reference energy               -273.058225266771


 Computing intrinsic bond orbitals
 =================================

 Basis set MINAO-AUTO-PP generated.      Number of basis functions:   51 

 Polarized AO type:                A = (O Ot + (1-O)(1-Ot)) P12
 Orthogonalization method:         Symmetric (Loewdin)
 Localization functional:          L = sum[A,i] <i|n_A|i>^4 -> max

 Localization group 1:  22 orbitals, occupancy  2.000
 Iterative localization: IB/PM,   15 iter; Final gradient 0.25E-08

 Summary of localized orbital composition:   [THRPRINT= 0.020]

   ORB  GRP  ORB.ENERGY      CENTERS/CHARGES
     8   1    -0.930909      C  5   1.071   C  3   0.915
     9   1    -0.825996      C  3   0.989   C  4   0.975   (other: 0.036)
    10   1    -0.767094      C  1   1.103   C  2   0.880
    11   1    -0.667847      C  6   1.105   H 19   0.844   H 16   0.027   C  4   0.020
    12   1    -0.667379      C  7   1.037   H 22   0.839   H 13   0.086   C  5   0.024
    13   1    -0.634013      C  6   1.121   H 20   0.863
    14   1    -0.633940      C  2   1.138   H 12   0.796   H  8   0.036   C  1   0.021
    15   1    -0.619107      C  4   1.146   H 15   0.836
    16   1    -0.610400      C  7   1.434   C  5   0.341   H 13   0.153   C  2   0.028   (other: 0.045)
    17   1    -0.609231      C  5   1.199   H 17   0.766   (other: 0.035)
    18   1    -0.603387      C  2   1.172   H 11   0.774   (other: 0.054)
    19   1    -0.570397      C  6   1.004   C  5   0.936   C  3   0.030   (other: 0.029)
    20   1    -0.560806      C  7   1.095   H 21   0.845   H 13   0.039   (other: 0.021)
    21   1    -0.557718      C  1   1.044   H  9   0.916   (other: 0.040)
    22   1    -0.545574      C  1   0.978   H 10   0.929   H 11   0.027   C  2   0.021   (other: 0.044)
    23   1    -0.518714      C  4   1.039   H 14   0.922   (other: 0.039)
    24   1    -0.499167      C  6   1.023   H 18   0.960
    25   1    -0.495691      C  1   1.089   H  8   0.892
    26   1    -0.488611      C  7   1.051   H 23   0.913   H 13   0.026
    27   1    -0.465506      C  2   1.025   C  3   0.461   H 13   0.373   C  6   0.035   C  5   0.029   (other: 0.078)
    28   1    -0.463744      C  4   1.037   H 16   0.897   (other: 0.066)
    29   1    -0.424811      C  3   1.663   C  5   0.230   C  4   0.033   C  7   0.021   (other: 0.054)

 Localizing core orbitals

 CPU Time for LMOs:                 67.45 sec. Elapsed time:    70.45 sec. Memory usage:     1.74 MW (max).
 CPU Time for PAOs:                  0.03 sec. Elapsed time:     0.03 sec. Memory usage:     2.20 MW (max).

 Distance criteria for pair classes:       RCLOSE= 0.0  RWEAK= 0.0  RDIST= 0.0  RVDIST=-1.0
 Connectivity criteria for pair classes:   ICLOSE=   0  IWEAK=   0  IDIST=   0  IVDIST=  -1

 Augmenting orbital domains by 3 shell(s) of neighboring atoms.  Minimum radius:     7.00
 Augmenting RI domains by 4 shell(s) of neighboring atoms.  Minimum radius:          9.00
 Augmenting DF domains by 3 shell(s) of neighboring atoms.  Minimum radius:          7.00

 Generating LMO domains. Method=COEFF  Threshold=1.00D-06

 Fitting truncated LMOs to exact LMOs

 Minimum LMO domain size:                641
 Maximum LMO domain size:                659
 Average LMO domain size:              657.4   (sparsity   0.25 %)

 CPU time for Fitlmo:                   0.01 sec.

 PAO orbital domain sizes:   303 (min),  641 (max),  492.5 (average)
 DF  orbital domain sizes:   686 (min), 1432 (max), 1088.6 (average)
 RI  orbital domain sizes:  1240 (min), 1840 (max), 1625.8 (average)

 CPU Time for Domains:               0.01 sec. Elapsed time:     0.03 sec. Memory usage:     0.87 MW (max).

 Number of residual matrices on current processor:       22
 Number of amplitude matrices on current processor:     253

 Fitting basis AUG-CC-PVTZ-MP2F loaded

 Threshold for block screening:     1.00D-05
 Threshold for integral screening:  1.00D-10

 CPU time for create_blocked_AO basis:                 0.02 sec, 659 functions, 30 blocks.
 CPU time for create_blocked_DF basis:                 0.07 sec, 1478 functions, 53 blocks.
 CPU time for create_blocked_RI basis:                 0.07 sec, 1840 functions, 23 blocks.

 Fitting basis center dimensions: min=   46, max=  106, average= 64.26
 Fitting basis block dimensions:  min=  12, max=  36, average= 27.89

 CPU time for project LMOs:                                    0.00 sec.
 CPU time for project PAOs:                                    0.00 sec.

 Screening PAOs with threshold      1.00D-06

 Minimum PAO vector length:              659
 Maximum PAO vector length:              659
 Average PAO vector length:            659.0  (sparsity  0.00 %)

 CPU time for cut/fit of PAO vectors:                          0.01 sec.

 CPU Time for Block_basis:           0.18 sec. Elapsed time:     0.20 sec. Memory usage:     0.97 MW (max).
 CPU Time for Orbitals(tot):        67.67 sec. Elapsed time:    70.72 sec. Memory usage:     0.97 MW (max).
 CPU Time for PAO integrals:        12.22 sec. Elapsed time:    12.36 sec. Memory usage:    11.48 MW (max).
 CPU Time for PAO integrals:         0.00 sec. Elapsed time:     0.00 sec. Memory usage:     6.50 MW (max).
 CPU Time for PAO amplitudes:        2.61 sec. Elapsed time:     2.61 sec. Memory usage:    13.13 MW (max).

 Generating OSVs using PAO(PERT) amplitudes, throsv= 1.0D-10

 Minimum OSV orbital domain size:        158
 Maximum OSV orbital domain size:        440
 Average OSV orbital domain size:      229.4

 CPU Time for OSV_generate:          0.86 sec. Elapsed time:     0.87 sec. Memory usage:    10.30 MW (max).

 Computing distant pair energies using multipole approximation up to order   3

 CPU time for computing multipole integrals (PAO/LMO):         1.07 sec
 CPU time for transforming integrals to OSV domains:           0.01 sec
 CPU time for distant pair energies:                           1.83 sec

 Distant pairs selected using the multipole order 3,  thrdist=1.0D-06  thrvdist=1.0D-07

 Semi-canonical distant pair energies, multipole-orders 1-3    0.00000000  0.00000000  0.00000000


 CPU Time for osv_mltp:              1.81 sec. Elapsed time:     1.84 sec. Memory usage:     3.54 MW (max).

 Number of strong pairs:                 253
 Number of close pairs:                    0
 Number of weak pairs:                     0
 Number of distant pairs:                  0  (treated by iterative multipole approximation, thrdist= 1.0D-06)
 Number of very distant pairs:             0  (treated by non-iterative multipole approximation, thrvdist= 1.0D-07)
 Total number of pairs in LMP2:          253

 Number of pairs per orbital (min, max, average):

 Strong pairs:              22    22    22.0
 Close pairs:                0     0     0.0
 Weak  pairs:                0     0     0.0
 Distant  pairs:             0     0     0.0
 Very distant pairs:         0     0     0.0

 CPU Time for Distribute_pairs:      0.00 sec. Elapsed time:     0.00 sec. Memory usage:     3.54 MW (max).

 Number of residual matrices on current processor:      253
 Number of amplitude matrices on current processor:     253
 F12 pair list with SKIPF=3, 253 pairs.

 Minimum OSV pair domain size:           158
 Maximum OSV pair domain size:           782
 Average OSV pair domain size:         438.9
 Total number of OSVs:                  5047
 Total number of OSV amplitudes:    51755242

 CPU Time for OSV_pairdom:          23.78 sec. Elapsed time:    24.01 sec. Memory usage:    54.16 MW (max).
 CPU Time for OSV integrals:        37.25 sec. Elapsed time:    37.91 sec. Memory usage:   110.87 MW (max).
 CPU Time for OSV_smatrix:           1.01 sec. Elapsed time:     1.05 sec. Memory usage:   103.54 MW (max).

 nosvmx= 782  nosvt= 5047  lens=         0  lenr=  49386063  lent=  51755242  leng=  51755242  lenw=  50622573  lenosv=    611524

 Generating PNOs using OSV(SC) amplitudes, THRPNO_EN=0.9970,  THRPNO_OCC=1.0D-08,  KEEP_DIAG=T  THRPNO_DIAG=0.0D+00

 Generating PNOs for LCCSD with thresholds: THREN_CC:  0.99700, THRPNO_CC:1.0D-08

                                                PNO-LMP2     PNO_LCCSD
 Minimum PNO domain size:                            79            79
 Maximum PNO domain size:                           184           184
 Average PNO domain size:                         119.2         119.2
 Total number of PNOs:                            30167         30167
 Total number of PNO amplitudes:                3694931
 Local number of PNO amplitudes:                3694931
 Length of local PNO residual:                  3694931
 Length of local W-matrix:                     13571412

 Semi-canonical OSV correlation energy:     -1.44505730
 Semi-canonical PNO correlation energies:   -1.44455141   -1.44455141

 Semi-canonical domain correction:          -0.00050589   -0.00050589

 CPU Time for PNO_generate:         15.73 sec. Elapsed time:    16.07 sec. Memory usage:   110.94 MW (max).

 Local length of PNO overlap matrix for PNO-LMP2:   73208299  Number of blocks:    5082  number of pairs   253

 GA space for pno_smat:             73.21 MW (tot),             73.21 MW (min),             73.21 MW (max), using processor specific storage

 CPU Time for READ_OSV_SBUF:         0.01 sec. Elapsed time:     0.03 sec. Memory usage:    26.72 MW (max).
 CPU Time for PNO_SMAT:              9.50 sec. Elapsed time:     9.92 sec. Memory usage:    26.60 MW (max).

 Denominator shift:          0.2000

 ITER.      SQ.NORM     CORR.ENERGY   TOTAL ENERGY   ENERGY CHANGE     VAR    DIIS
   1      0.59086266    -1.47289804  -274.53112331    -1.47289804  0.78D-02   1  1
   2      0.62625509    -1.49445295  -274.55267822    -0.02155491  0.50D-03   2  2
   3      0.65677435    -1.49588185  -274.55410712    -0.00142890  0.24D-04   3  3
   4      0.66006442    -1.49594199  -274.55416726    -0.00006014  0.18D-05   4  4
   5      0.65984826    -1.49594670  -274.55417197    -0.00000471  0.11D-06   5  5
   6      0.65976974    -1.49594698  -274.55417225    -0.00000028  0.81D-08   6  6

                                            PNO-LMP2        PNO-LMP2_CORR
  PNO-LMP2 correlation energy          -1.495946978435    -1.496452867677
 !PNO-LMP2 total energy              -274.554172245206  -274.554678134448

 CPU Time for PNO-LMP2:             10.90 sec. Elapsed time:    12.08 sec. Memory usage:    31.94 MW (max).

 Computing the F12/3*A(LOC,FIX) energy correction
 ================================================
 Options for MP2-F12: THRF12=0.0E+00  THRVAL=0.1E-03  N_RI_BATCH=0
 Geminal basis:    OPTFULL  GEM_TYPE=SLATER  BETA=1.0  NGEM=6

 Optimizing Gaussian exponents for each gem_beta

 Geminal optimization for beta= 1.0000
 Weight function:   m=0, omega= 1.4646

 Augmented Hessian optimization of geminal fit. Trust ratio= 0.40000
 Convergence reached after   2 iterations. Final gradient= 8.53D-16, Step= 4.26D-06, Delta= 1.28D-09

 Alpha:                 0.19532     0.81920     2.85917     9.50073    35.69989   197.79328
 Coeff:                 0.27070     0.30552     0.18297     0.10986     0.06810     0.04224

 Screened 253 pairs with threshold 0.0E+00, 253 pairs actually used.

  F12(PNO) correction                  -0.102576744588
  PNO-LMP2-F12(PNO) corr. energy       -1.598523723022
 !PNO-LMP2-F12(PNO) total energy     -274.656748989793

 CPU Time for F12_energy:          661.42 sec. Elapsed time:   669.96 sec. Memory usage:    66.10 MW (max).
  Scaling factor for (T)                1.068569772904

 PNO-LMP2-F12 energy contributions
 =================================
                            OSV-LMP2(SC)     PNO-LMP2     PNO-SCS-LMP2   F12 contrib.  PNO-LMP2-F12  PNO-SCS-LMP2-F12  %(PNO/OSV)  AVDOM(PNO)
 Strong pair energy:        -1.44505730    -1.49594698    -1.49439404    -0.10257674    -1.59852372    -1.61205232       103.52      119.2
 Close pair energy:          0.00000000     0.00000000     0.00000000     0.00000000     0.00000000     0.00000000         0.00        0.0
 Weak pair energy :          0.00000000     0.00000000     0.00000000     0.00000000     0.00000000     0.00000000         0.00        0.0
 Distant pair energy:        0.00000000     0.00000000     0.00000000     0.00000000     0.00000000     0.00000000         0.00        0.0
 Total correl. energy:      -1.44505730    -1.49594698    -1.49439404    -0.10257674    -1.59852372    -1.61205232       103.52      119.2

 GA space for pno_smat:             73.21 MW (tot),             73.21 MW (min),             73.21 MW (max), using processor specific storage

 CPU Time for READ_OSV_SBUF:         0.09 sec. Elapsed time:     0.19 sec. Memory usage:    24.77 MW (max).
 CPU Time for PNO_SMAT:              9.13 sec. Elapsed time:     9.53 sec. Memory usage:    24.65 MW (max).

 Denominator shift:          0.2000

 ITER.      SQ.NORM     CORR.ENERGY   TOTAL ENERGY   ENERGY CHANGE     VAR    DIIS
   1      0.65978494    -1.49594700  -274.55417226    -1.49594700  0.13D-08   1  1
   2      0.65978456    -1.49594700  -274.55417227    -0.00000000  0.19D-09   2  2

 LMP2 results with LCCSD domains:
 ================================
                                            PNO-LMP2        PNO-LMP2_CORR
  PNO-LMP2 correlation energy          -1.495947000035    -1.496452867677
  PNO-LMP2 total energy              -274.554172266807  -274.554678134448
  F12(PNO) correction                  -0.102576744588
  PNO-LMP2-F12 correlation energy      -1.598523744623
  PNO-LMP2-F12 total energy          -274.656749011394

  PNO-LMP2-F12 domain correction        0.000000021601

 CPU Time for PNO-LMP2(tot):       789.82 sec. Elapsed time:   802.19 sec. Memory usage:   132.91 MW (max).

 Energy thresholds for pair classes:  THRCLOSE=1.00D-04  THRWEAK= 1.00D-05  THRDISTC=0.00D+00

 Strong and close pairs optimized in LCCSD, close pair residuals are approximated (keepcls=1).

 Number of optimized pairs:         253
 Number of strong pairs:            235
 Number of close pairs:              18
 Number of weak pairs:                0
 Total number of pairs:             253

 Length of pair-specific S-blocks:  1661.91 MW,  length of unique S-blocks   453.18 MW

 CPU Time for LCC_opdom:             0.12 sec. Elapsed time:     0.13 sec. Memory usage:     1.56 MW (max).
 CPU Time for LCC_float:             0.02 sec. Elapsed time:     0.01 sec. Memory usage:     0.97 MW (max).

 CPU Time for LCC_opdom:             0.10 sec. Elapsed time:     0.11 sec. Memory usage:     1.56 MW (max).
 CPU Time for LCC_load:              0.06 sec. Elapsed time:     0.08 sec. Memory usage:    21.43 MW (max).

 Estimated GA usage of PNO-LCCSD-F12 integrals:                  0.00 MW
 Maximum GA usage after allocating GAs for CCSD integrals:       0.00 MW

 CPU Time for CCSD integrals:     5250.05 sec. Elapsed time:  7074.98 sec. Memory usage:   181.52 MW (max).

 GA space for pno_smat:            453.18 MW (tot),            453.18 MW (min),            453.18 MW (max), using node specific storage
 CPU Time for OSV_SMAT_LCC:          1.02 sec. Elapsed time:     1.09 sec. Memory usage:   196.84 MW (max).
 CPU Time for READ_OSV_SBUF:         0.00 sec. Elapsed time:     0.01 sec. Memory usage:   196.84 MW (max).
 CPU Time for PNO_SMAT_LCC:         56.96 sec. Elapsed time:    59.39 sec. Memory usage:   183.67 MW (max).

 Current GA usage:                   0.00 MW.  Maximum GA usage up to this point:            0.00 MW

 Solving PNO-LCCSD equations

 K-Operators in non-linear terms are projected

 Close pairs are approximated (keepcls=1, max_ijkl=0, skip_ijkl=0, maxik=0)

 Weak pairs pairs are treated by CEPA(2)

 Denominator shifts:     0.15 (singles),  0.20 (doubles)

 ITER.      SQ.NORM     CORR.ENERGY   TOTAL ENERGY   ENERGY CHANGE     VAR        VART1     DIIS     TIME
    1     0.67730620    -1.53836753  -274.59659280     0.06015621    0.12D-01    0.18D-01   1  1  1052.62
    2     0.65435041    -1.60690232  -274.66512759    -0.06853479    0.28D-02    0.56D-03   2  2  1929.49
    3     0.73973500    -1.61638316  -274.67460843    -0.00948084    0.44D-03    0.38D-03   3  3  2795.59
    4     0.77692198    -1.61897025  -274.67719552    -0.00258709    0.88D-04    0.82D-04   4  4  3384.32
    5     0.78967644    -1.61967325  -274.67789852    -0.00070300    0.18D-04    0.46D-04   5  5  4000.44
    6     0.79458285    -1.61993228  -274.67815755    -0.00025903    0.49D-05    0.24D-04   6  6  4631.22
    7     0.79809627    -1.62010201  -274.67832728    -0.00016973    0.21D-05    0.13D-04   7  7  5268.30
    8     0.80074914    -1.62020643  -274.67843170    -0.00010442    0.10D-05    0.66D-05   8  8  5838.42
    9     0.80291723    -1.62029743  -274.67852270    -0.00009100    0.50D-06    0.23D-05   1  8  6380.35
   10     0.80430280    -1.62034494  -274.67857021    -0.00004751    0.21D-06    0.84D-06   2  8  6942.29
   11     0.80495970    -1.62035840  -274.67858367    -0.00001346    0.76D-07    0.31D-06   3  8  7559.50
   12     0.80537218    -1.62036760  -274.67859286    -0.00000920    0.29D-07    0.12D-06   4  8  8174.20
   13     0.80550368    -1.62036521  -274.67859048     0.00000238    0.11D-07    0.45D-07   5  8  8766.69
   14     0.80560591    -1.62036579  -274.67859106    -0.00000058    0.48D-08    0.18D-07   6  8  9352.07

 Convergence reached

  T1 diagnostic   0.02345
  D1 diagnostic   0.10217
   
  Reference energy                   -273.056167893635
  CABS singles correction              -0.002057373136
  New reference energy               -273.058225266771

  Correlation contributions without domain correction:

  PNO-LCCSD-F12 singles energy          0.001462194308
  PNO-LCCSD-F12a strong pair energy    -1.621015140084
  PNO-LCCSD-F12b strong pair energy    -1.598289805045
  PNO-LCCSD-F12 close pair energy      -0.000812847791
  PNO-CEPA(2)-F12 weak pair energy      0.000000000000
  PNO-SCS-LMP2 distant pair energy      0.000000000000

  Results including domain correction:

  PNO-LMP2-F12 correction               0.000000021601
  PNO-LCCSD-F12a correlation energy    -1.620365771966
  PNO-LCCSD-F12b correlation energy    -1.597640436926

 !PNO-LCCSD-F12a total energy        -274.678591038737
 !PNO-LCCSD-F12b total energy        -274.655865703697

 Maximum stack memory usage in PNO-LCCSD iterations: 212.76 MW
 Maximum GA memory usage up to this point: .00 MW
 Maximum local disk usage in MB: 99346.06 (current)   99346.06 (maximum)   99346.06 (average)
 Maximum local disk usage per node: 99346.06 MB

 CPU Time for PNO_LCCSD(it):      4096.09 sec. Elapsed time:  9352.24 sec. Memory usage:   185.34 MW (max).

 Selecting triples using THRCLOSE_T_PRE = 0.100E-03, THRWEAK_T_PRE = 0.000E+00, TRIPTYP = 2
 Selected 2001 of 2002 triples

 DF domains for (T) with RDFDOM_T: .0, IDFDOM_T: 0

 Options for (T) corrections
   Post (T0) method -  (T1): F, iterative (T): T
   Iterative (T) - THRCONV_TRIP: 0.100E-05, SKIP_TIJKW: F, THRFINT_EN: 0.100E-03
   Triple-specific virtuals - TNO
   PNO thresholds - (T0): 0.100E-09, post (T0): 0.100E-06
   LMO domains - MODOM_T0: 2
   Technical settings - TITER_DYNAMIC: F, USE_SOSV: F


 Triple PAO domain sizes: 659 (maximum), 626.6 (average) 629.5 (average, cubed)
 Triple OSV domain sizes: 1094 (maximum), 635.3 (average) 665.7 (average, cubed)
 Triple PNO domain sizes: 367 (maximum), 240.1 (average) 246.3 (average, cubed)
 Triple PNO (iterations) domain sizes: 121 (maximum), 69.0 (average) 73.1 (average, cubed)

 Estimated GA usage of (T) amplitudes 867.06 MW


                                         Large domain       Small domain       Domain corr.
  Triples [T0] contribution            -0.106653409156    -0.103980769822    -0.002672639334
  Triples [T0*] contribution           -0.113966609201    -0.111110707595    -0.002855901606
  Triples (T0) contribution            -0.101688651062    -0.099053388817    -0.002635262246
  Triples (T0*) contribution           -0.108661418773    -0.105845457193    -0.002815961579

  LCCSD(T0)-F12a corr. energy          -1.722054423028
  LCCSD(T0)-F12a total energy        -274.780279689799

  LCCSD(T0)-F12b corr. energy          -1.699329087989
  LCCSD(T0)-F12b total energy        -274.757554354760


 Screening triples with THRTRIP_IT = 0.100E-06
 1972 out of 2001 ( 98.55%) triples survived for the iterations

 ITER.   [T] ENERGY    ENERGY CHANGE    TIME
    0    -0.10397776     0.00000000     0.00
    1    -0.10777747    -0.00379971   638.86
    2    -0.10861671    -0.00083924  1282.46
    3    -0.10869243    -0.00007572  1928.47
    4    -0.10871742    -0.00002499  2577.43
    5    -0.10872025    -0.00000283  3224.46
    6    -0.10872160    -0.00000135  3880.56
    7    -0.10872175    -0.00000015  4521.89

 Convergence reached


                                         Small domain        Corrected
  Triples [T] contribution             -0.108724764947    -0.111397404281
  Triples [T*] contribution            -0.116179997389    -0.119035898995
  Triples (T) contribution             -0.103483319624    -0.106118581870
  Triples (T*) contribution            -0.110579147350    -0.113395108930

  LCCSD(T)-F12a corr. energy           -1.726484353836
 !LCCSD(T)-F12a total energy         -274.784709620607

  LCCSD(T)-F12b corr. energy           -1.703759018796
 !LCCSD(T)-F12b total energy         -274.761984285567


 GA_Put processed 8509.13 MW globally, average elapsed time per process: 35.72 sec
 GA_Get processed 970455.23 MW globally, average elapsed time per process: 1724.04 sec

 REMARK: Memory usage printed may not be correct.
 CPU Time for LCCSD(T)(tot):     25211.21 sec. Elapsed time: 32998.88 sec. Memory usage:   196.84 MW (max).

 Direct file usage                 694.16 MB (local),          694.16 MB (max),            694.16 MB (tot)

 Max. memory usage (overall):      196.84 MW (local),          196.84 MW (max),            196.84 MW (tot)
 Max. GA usage (overall):            0.00 MW (local),            0.00 MW (max),              0.00 MW (tot)
 Max. memory+GA usage:             196.84 MW (local),          196.84 MW (max),            196.84 MW (tot)


 **********************************************************************************************************************************
 DATASETS  * FILE   NREC   LENGTH (MB)   RECORD NAMES
              1      19       46.38       500      610      700      900      950      970     1000      129      960     1100   
                                          VAR    BASINP    GEOM    SYMINP    ZMAT    AOBASIS   BASIS     P2S    ABASIS      S 
                                         1400     1410     1200     1210     1080     1600     1650     1700      960(1)
                                           T        V       H0       H01     AOSYM     SMH    MOLCAS    OPER    ABASIS    

              2       5       20.63       700     1000      520     2100     7360   
                                         GEOM     BASIS   MCVARS     RHF    F12ABS    

 PROGRAMS   *        TOTAL  LCCSD(T)     DF-HF       INT
 CPU TIMES  *     26256.06  26068.72    186.55      0.67
 REAL TIME  *     34068.46 SEC
 DISK USED  *         2.30 GB
 **********************************************************************************************************************************

 PNO-LCCSD(T)-F12/cc-pVTZ-F12 energy=   -274.761984285567

    LCCSD(T)-F12           DF-HF
   -274.78470962   -273.05616789
 **********************************************************************************************************************************
 Molpro calculation terminated
