
 Primary working directories    : /var/tmp/pbs.368524.bp1/molpro.N9iTMN6ItM
 Secondary working directories  : /var/tmp/pbs.368524.bp1/molpro.N9iTMN6ItM
 Wavefunction directory         : /home/lb17101/molpro_test/inp/lowmem/
 Main file repository           : /home/lb17101/molpro_test/inp/lowmem/

 id        : uob

 Nodes                         nprocs
 bp1-13-14-03.data.bp.acrc.priv    1

 Using customized tuning parameters: mindgm=1; mindgv=20; mindgc=4; mindgr=1; noblas=0; minvec=7
 default implementation of scratch files=df  


 Variables initialized (934), CPU time= 0.00 sec
 geomtyp=xyz
 nosym
 noorient
 geometry={
 C       2.682553142765      -1.439438488647      -0.661046844118
 C       1.943855644586      -0.231765356275      -0.093682523204
 C       0.214003469184       0.800627472803       0.703680408037
 C      -0.272761558326      -0.082655788263       1.716016419494
 C      -0.783026666974       1.019409382396      -0.183699731572
 C      -2.437479436159       1.639341869019       0.547052656472
 C      -1.095843845065      -0.587960645040      -1.347071314975
 H       2.668871645538      -3.017723564592      -1.164885544584
 H       3.688844315079      -1.056204110642      -1.589804766081
 H       1.708153655008      -1.403899383845      -1.577207273869
 H       1.747952994639      -0.377012812560       1.281012291903
 H       2.138182319334       0.217769833242      -1.272152822352
 H       0.267994238462      -0.243965199797      -0.972520432611
 H       0.147259620911      -1.583197887363       1.448767398382
 H      -0.544480461986       0.439143127216       2.822159196983
 H      -1.852931601343       0.238259806771       1.810667160475
 H      -1.233712084174       1.383762226753      -1.491973354623
 H      -3.877201474844       1.925908017288       0.125626163703
 H      -2.976558319304       1.095695877634       1.546747540189
 H      -2.075916852998       2.840743486441       0.399549121191
 H      -1.718655188426      -0.759872452733      -2.441159919966
 H      -0.314343654904      -1.300766424846      -1.886688127806
 H      -2.333583469738      -1.375180840608      -1.110818580992
 }
 basis=avtz
 df-hf
 pno-lccsd(t)
 Commands  initialized (763), CPU time= 0.01 sec, 617 directives.
 Default parameters read. Elapsed time= 0.03 sec

 Checking input...
 Passed
1


                                         ***  PROGRAM SYSTEM MOLPRO  ***
                                       Copyright, TTI GmbH Stuttgart, 2015
                                    Version 2019.2 linked Oct 25 2019 22:50:27


 **********************************************************************************************************************************
 LABEL *                                                                                 
  64 bit serial version                                                                  DATE: 23-Sep-20          TIME: 03:58:22  
 **********************************************************************************************************************************

 SHA1:             8dbd9ae1082e4ce945b0f27595c9eb2d4aa09004
 **********************************************************************************************************************************
 SETTING GEOMTYP        =    XYZ

 Variable memory set to 1024000000 words,  buffer space 

 ZSYMEL=NOSYM

 SETTING BASIS          =    AVTZ


 Recomputing integrals since basis changed


 Using spherical harmonics

 Library entry C      S aug-cc-pVTZ          selected for orbital group  1
 Library entry C      P aug-cc-pVTZ          selected for orbital group  1
 Library entry C      D aug-cc-pVTZ          selected for orbital group  1
 Library entry C      F aug-cc-pVTZ          selected for orbital group  1
 Library entry H      S aug-cc-pVTZ          selected for orbital group  2
 Library entry H      P aug-cc-pVTZ          selected for orbital group  2
 Library entry H      D aug-cc-pVTZ          selected for orbital group  2


 PROGRAM * SEWARD (Integral evaluation for generally contracted gaussian basis sets)     Author: Roland Lindh, 1990

 Geometry written to block  1 of record 700


 Point group  C1  



 ATOMIC COORDINATES

 NR  ATOM    CHARGE       X              Y              Z

   1  C       6.00    5.069290754   -2.720144517   -1.249197491
   2  C       6.00    3.673354794   -0.437973049   -0.177034312
   3  C       6.00    0.404407946    1.512966651    1.329763250
   4  C       6.00   -0.515444643   -0.156196802    3.242801058
   5  C       6.00   -1.479705949    1.926404542   -0.347142182
   6  C       6.00   -4.606168569    3.097907157    1.033779696
   7  C       6.00   -2.070844742   -1.111084591   -2.545595856
   8  H       1.00    5.043436472   -5.702671057   -2.201314646
   9  H       1.00    6.970905472   -1.995936501   -3.004295599
  10  H       1.00    3.227942587   -2.652985342   -2.980489789
  11  H       1.00    3.303152438   -0.712450961    2.420762394
  12  H       1.00    4.040578988    0.411525343   -2.404020423
  13  H       1.00    0.506435714   -0.461027412   -1.837797268
  14  H       1.00    0.278280353   -2.991810408    2.737773601
  15  H       1.00   -1.028918953    0.829860240    5.333107962
  16  H       1.00   -3.501533254    0.450245781    3.421665036
  17  H       1.00   -2.331377956    2.614931630   -2.819421025
  18  H       1.00   -7.326848917    3.639438694    0.237399043
  19  H       1.00   -5.624880017    2.070565125    2.922929235
  20  H       1.00   -3.922914310    5.368227180    0.755038412
  21  H       1.00   -3.247787609   -1.435950825   -4.613123675
  22  H       1.00   -0.594023417   -2.458092295   -3.565323844
  23  H       1.00   -4.409833647   -2.598715160   -2.099142892

 Bond lengths in Bohr (Angstrom)

  1- 2  2.882096060   1- 9  2.687189080   1-10  2.528328786   2-11  2.638358511   2-12  2.411631868
       ( 1.525139555)       ( 1.421999223)       ( 1.337933975)       ( 1.396159198)       ( 1.276180626)

  3- 4  2.700360916   3- 5  2.555939727   4-15  2.367561470   5- 6  3.613050252   5- 7  3.795916735
       ( 1.428969458)       ( 1.352545056)       ( 1.252859575)       ( 1.911943855)       ( 2.008712631)

  5-17  2.703992870   6-19  2.379514792   6-20  2.387233983   7-13  2.750623152   7-21  2.401125541
       ( 1.430891405)       ( 1.259185001)       ( 1.263269821)       ( 1.455567088)       ( 1.270620917)

  7-22  2.243942101   7-23  2.807709752
       ( 1.187443022)       ( 1.485776016)

 Bond angles

  1- 2-11  110.60185353   1- 2-12   82.04758984   2- 1- 9  111.85874161   2- 1-10   83.16318716

  3- 4-15  116.22597298   3- 5- 6  116.07621213   3- 5- 7  111.42838688   3- 5-17  150.83590357

  4- 3- 5  108.28084015   5- 6-19  122.27009448   5- 6-20   90.92071704   5- 7-13   61.04910822

  5- 7-21  133.10170697   5- 7-22  129.87009688   5- 7-23  117.49141387   6- 5- 7  110.24646695

  6- 5-17   89.67563526   7- 5-17   67.98650207   9- 1-10   93.49611345  11- 2-12  165.29611886

 13- 7-21  135.46484656  13- 7-22   69.03125817  13- 7-23  149.86679319  19- 6-20  128.74334918

 21- 7-22   81.37758029  21- 7-23   69.93397644  22- 7-23  107.60617187

 NUCLEAR CHARGE:                   58
 NUMBER OF PRIMITIVE AOS:         901
 NUMBER OF SYMMETRY AOS:          806
 NUMBER OF CONTRACTIONS:          690   (  690A   )
 NUMBER OF CORE ORBITALS:           7   (    7A   )
 NUMBER OF VALENCE ORBITALS:       44   (   44A   )


 NUCLEAR REPULSION ENERGY  298.55278751


 Eigenvalues of metric

         1 0.418E-05 0.508E-05 0.519E-05 0.759E-05 0.101E-04 0.111E-04 0.121E-04 0.141E-04


 OPERATOR DM      FOR CENTER  0  COORDINATES:    0.000000    0.000000    0.000000


 **********************************************************************************************************************************
 DATASETS  * FILE   NREC   LENGTH (MB)   RECORD NAMES
              1      18       47.71       500      610      700      900      950      970     1000      129      960     1100   
                                          VAR    BASINP    GEOM    SYMINP    ZMAT    AOBASIS   BASIS     P2S    ABASIS      S 
                                         1400     1410     1200     1210     1080     1600     1650     1700   
                                           T        V       H0       H01     AOSYM     SMH    MOLCAS    OPER   

 PROGRAMS   *        TOTAL       INT
 CPU TIMES  *         0.71      0.63
 REAL TIME  *         1.61 SEC
 DISK USED  *        48.55 MB
 **********************************************************************************************************************************


 PROGRAM * RHF-SCF (CLOSED SHELL)       Authors: W. Meyer, H.-J. Werner


 NUMBER OF ELECTRONS:      29+   29-    SPACE SYMMETRY=1    SPIN SYMMETRY: Singlet 
 CONVERGENCE THRESHOLDS:    1.00E-05 (Density)    1.00E-07 (Energy)
 INTEGRAL THRESHOLDS:       1.00E-12 (Initial)    1.00E-12 (Final)
 MAX. NUMBER OF ITERATIONS:       60
 INTERPOLATION TYPE:            DIIS
 INTERPOLATION STEPS:              2 (START)      1 (STEP)
 LEVEL SHIFTS:                  0.00 (CLOSED)  0.00 (OPEN) 




 Basis set AUG-CC-PVTZ/JKFIT generated.  Number of basis functions:   1464 

 Orbital guess generated from atomic densities. Full valence occupancy:   51
 Using density fitting in orbital guess

 Coulomb and exchange fitting
 Thresholds for fitting:       THRAO_COUL= 1.0D-15    THRAO_EXCH= 1.0D-13    THRMO= 1.0D-12    THRPROD= 1.0D-12    THRASM= 1.0D-12
                               THR2HLF=    1.0D-12

 Molecular orbital dump at record        2100.2

 Initial occupancy:  29

 ITERATION   DDIFF            GRAD            ENERGY        2-EL.EN.            DIPOLE MOMENTS         DIIS   CPU(IT)  CPU(TOT)  ORB.
    1      0.000D+00      0.000D+00      -272.87267668    778.146323   -0.54933   -1.61897   -2.91738    0     11.8     25.4     start
    2      0.000D+00      0.211D-02      -272.96386001    769.062518   -0.04734    0.73063    0.29843    1     11.8     37.2     diag
    3      0.310D-02      0.171D-02      -273.03066748    774.538437   -0.39874   -0.19413   -1.01807    2     11.8     49.0     diag
    4      0.158D-02      0.411D-03      -273.03949995    773.651173   -0.40199   -0.01762   -0.88641    3     11.8     60.8     diag
    5      0.621D-03      0.180D-03      -273.04140188    773.607213   -0.45426    0.03389   -0.78572    4     11.7     72.5     diag
    6      0.276D-03      0.813D-04      -273.04225477    773.608104   -0.51255    0.07012   -0.77936    5     11.8     84.3     diag
    7      0.206D-03      0.505D-04      -273.04264087    773.573071   -0.55291    0.08159   -0.76076    6     11.8     96.0     diag
    8      0.134D-03      0.334D-04      -273.04292694    773.563105   -0.60709    0.09507   -0.75680    7     11.7    107.7     diag
    9      0.146D-03      0.211D-04      -273.04305580    773.576255   -0.63551    0.10371   -0.74445    8     11.9    119.6     diag
   10      0.115D-03      0.117D-04      -273.04309387    773.560706   -0.65269    0.10375   -0.74311    9     11.7    131.3     orth
   11      0.653D-04      0.641D-05      -273.04310482    773.559184   -0.65439    0.10284   -0.74190    9     11.7    143.0     diag
   12      0.399D-04      0.354D-05      -273.04310705    773.561989   -0.65393    0.10147   -0.74160    9     11.7    154.7     diag
   13      0.157D-04      0.175D-05      -273.04310771    773.558552   -0.65177    0.10021   -0.74206    9     11.6    166.3     diag
   14      0.950D-05      0.967D-06      -273.04310784    773.560042   -0.65095    0.09970   -0.74249    9     11.9    178.2     diag
   15      0.345D-05      0.442D-06      -273.04310788    773.559529   -0.65050    0.09947   -0.74255    9     11.7    190.0     diag
   16      0.198D-05      0.252D-06      -273.04310788    773.559765   -0.65045    0.09946   -0.74264    0     11.8    201.7     orth

 Final occupancy:  29

 !RHF STATE  1.1 Energy              -273.043107880177
 Nuclear energy                       298.55278751
 One-electron energy                 -958.37577797
 Two-electron energy                  386.77988257
 Virial quotient                       -1.01225393
 !RHF STATE  1.1 Dipole moment         -0.65045026     0.09945654    -0.74264371
 Dipole moment /Debye                  -1.65317136     0.25277675    -1.88748841

 Orbital energies:

         1.1          2.1          3.1          4.1          5.1          6.1          7.1          8.1          9.1         10.1
    -11.377270   -11.339709   -11.335623   -11.334359   -11.312803   -11.279610   -11.270173    -1.116881    -1.015994    -0.931197

        11.1         12.1         13.1         14.1         15.1         16.1         17.1         18.1         19.1         20.1
     -0.892368    -0.850359    -0.736259    -0.670806    -0.626958    -0.607285    -0.588043    -0.558742    -0.535744    -0.506925

        21.1         22.1         23.1         24.1         25.1         26.1         27.1         28.1         29.1         30.1
     -0.495074    -0.483050    -0.454633    -0.415524    -0.394428    -0.367405    -0.339534    -0.293014    -0.278237     0.009839

        31.1
      0.023280


 HOMO     29.1    -0.278237 =      -7.5712eV
 LUMO     30.1     0.009839 =       0.2677eV
 LUMO-HOMO         0.288076 =       7.8389eV


 **********************************************************************************************************************************
 DATASETS  * FILE   NREC   LENGTH (MB)   RECORD NAMES
              1      18       47.71       500      610      700      900      950      970     1000      129      960     1100   
                                          VAR    BASINP    GEOM    SYMINP    ZMAT    AOBASIS   BASIS     P2S    ABASIS      S 
                                         1400     1410     1200     1210     1080     1600     1650     1700   
                                           T        V       H0       H01     AOSYM     SMH    MOLCAS    OPER   

              2       4       14.68       700     1000      520     2100   
                                         GEOM     BASIS   MCVARS     RHF  

 PROGRAMS   *        TOTAL     DF-HF       INT
 CPU TIMES  *       202.55    201.84      0.63
 REAL TIME  *       211.94 SEC
 DISK USED  *       483.25 MB
 **********************************************************************************************************************************


 World communicator: rank 0, size 1
 Shared-memory communicator: rank 0, size 1
 Current node: rank 0, 1 node(s) in total

 Restoring occupations from record    2100.2

 Program * PNO-LCCSD(T)   Authors:   H.-J. Werner (2012), M. Schwilk, Q. Ma (2016)

 Number of core orbitals:           7
 Number of closed-shell orbitals:  22
 Number of open-shell orbitals:     0
 Number of valence orbitals:       22
 Number of external orbitals:     661

 Basis set AUG-CC-PVTZ/MP2FIT generated. Number of basis functions:   1478 

 iclose= 0  iweak= 0  rclose= 0.00  rweak= 0.00  thrclos= 1.0D-04  thrweak= 1.0D-05  open-shell=F

 Use_GA=T  Use_PAO=T  PAO_pairdom=F  PAO_trans=T  LOCFIT= 1  LOCRI=F  EIJDIP=2  PROJECT_K=T

 Threshold for small PAO norm:    0.00D+00
 Threshold for redundancy check:  1.00D-06

 OPTIONS FOR CCSD:   method= LCCSD     icepa= -1  icepac=-1  icepaw= 2  keepcls=1  maxcls=1  maxclt=2  maxwkt=2  do_mp2w=F
                     project_k=T    project_j=ALL    idexp4_close=0

 OPTIONS FOR SINGLES IN CCSD:   isexp4=  1  isexp5= 0  isexp6= 0  project_je=T  project_s=WEAK
                                includeGE= 1  includeKEKJ= 1  includeJEKJ= 0  includeJ= 2  undress=T  project_ke=2

 Molecular orbitals read from record     2100.2  Type=RHF/CANONICAL (state 1.1)
 Orbital energies read from record       2100.2  Type=RHF/CANONICAL (state 1.1)
 Fock matrix read from record            2100.2  Type=RHF/TOTAL (state 1.1)

  Reference energy                   -273.043107880177


 Computing intrinsic bond orbitals
 =================================

 Basis set MINAO-AUTO-PP generated.      Number of basis functions:   51 

 Polarized AO type:                A = (O Ot + (1-O)(1-Ot)) P12
 Orthogonalization method:         Symmetric (Loewdin)
 Localization functional:          L = sum[A,i] <i|n_A|i>^4 -> max

 Localization group 1:  22 orbitals, occupancy  2.000
 Iterative localization: IB/PM,   15 iter; Final gradient 0.27E-08

 Summary of localized orbital composition:   [THRPRINT= 0.020]

   ORB  GRP  ORB.ENERGY      CENTERS/CHARGES
     8   1    -0.931003      C  5   1.071   C  3   0.915
     9   1    -0.826036      C  3   0.989   C  4   0.975   (other: 0.036)
    10   1    -0.767101      C  1   1.103   C  2   0.880
    11   1    -0.667758      C  6   1.105   H 19   0.843   H 16   0.027   C  4   0.020
    12   1    -0.667152      C  7   1.037   H 22   0.839   H 13   0.086   C  5   0.024
    13   1    -0.633962      C  2   1.138   H 12   0.796   H  8   0.036   C  1   0.021
    14   1    -0.633906      C  6   1.121   H 20   0.863
    15   1    -0.619046      C  4   1.146   H 15   0.836
    16   1    -0.610484      C  7   1.434   C  5   0.340   H 13   0.152   C  2   0.028   (other: 0.045)
    17   1    -0.609212      C  5   1.199   H 17   0.766   (other: 0.035)
    18   1    -0.603427      C  2   1.172   H 11   0.774   (other: 0.054)
    19   1    -0.570213      C  6   1.004   C  5   0.936   C  3   0.030   (other: 0.029)
    20   1    -0.560599      C  7   1.095   H 21   0.845   H 13   0.039   (other: 0.021)
    21   1    -0.557640      C  1   1.044   H  9   0.915   (other: 0.040)
    22   1    -0.545435      C  1   0.978   H 10   0.929   H 11   0.027   C  2   0.021   (other: 0.044)
    23   1    -0.518634      C  4   1.039   H 14   0.922   (other: 0.039)
    24   1    -0.499007      C  6   1.023   H 18   0.960
    25   1    -0.495679      C  1   1.089   H  8   0.892
    26   1    -0.488441      C  7   1.051   H 23   0.913   H 13   0.026
    27   1    -0.465390      C  2   1.025   C  3   0.461   H 13   0.373   C  6   0.035   C  5   0.029   (other: 0.078)
    28   1    -0.463621      C  4   1.036   H 16   0.897   (other: 0.066)
    29   1    -0.424714      C  3   1.662   C  5   0.231   C  4   0.033   C  7   0.021   (other: 0.054)

 CPU Time for LMOs:                  0.15 sec. Elapsed time:     0.19 sec. Memory usage:     1.91 MW (max).
 CPU Time for PAOs:                  0.03 sec. Elapsed time:     0.04 sec. Memory usage:     2.41 MW (max).

 Distance criteria for pair classes:       RCLOSE= 0.0  RWEAK= 0.0  RDIST= 0.0  RVDIST=-1.0
 Connectivity criteria for pair classes:   ICLOSE=   0  IWEAK=   0  IDIST=   0  IVDIST=  -1

 Augmenting orbital domains by 2 shell(s) of neighboring atoms.  Minimum radius:     5.00
 Augmenting DF domains by 2 shell(s) of neighboring atoms.  Minimum radius:          5.00

 Generating LMO domains. Method=COEFF  Threshold=1.00D-06

 Fitting truncated LMOs to exact LMOs

 Minimum LMO domain size:                690
 Maximum LMO domain size:                690
 Average LMO domain size:              690.0   (sparsity   0.00 %)

 CPU time for Fitlmo:                   0.00 sec.

 PAO orbital domain sizes:   207 (min),  529 (max),  288.5 (average)
 DF  orbital domain sizes:   442 (min), 1142 (max),  624.8 (average)

 CPU Time for Domains:               0.00 sec. Elapsed time:     0.01 sec. Memory usage:     0.96 MW (max).

 Number of residual matrices on current processor:       22
 Number of amplitude matrices on current processor:     253

 Fitting basis AUG-CC-PVTZ-MP2F loaded

 Threshold for block screening:     1.00D-05
 Threshold for integral screening:  1.00D-10

 CPU time for create_blocked_AO basis:                 0.02 sec, 690 functions, 30 blocks.
 CPU time for create_blocked_DF basis:                 0.06 sec, 1478 functions, 53 blocks.

 Fitting basis center dimensions: min=   46, max=  106, average= 64.26
 Fitting basis block dimensions:  min=  12, max=  36, average= 27.89

 CPU time for project LMOs:                                    0.00 sec.
 CPU time for project PAOs:                                    0.00 sec.

 Screening PAOs with threshold      1.00D-06

 Minimum PAO vector length:              690
 Maximum PAO vector length:              690
 Average PAO vector length:            690.0  (sparsity  0.00 %)

 CPU time for cut/fit of PAO vectors:                          0.01 sec.

 CPU Time for Block_basis:           0.09 sec. Elapsed time:     0.10 sec. Memory usage:     1.01 MW (max).
 CPU Time for Orbitals(tot):         0.27 sec. Elapsed time:     0.34 sec. Memory usage:     1.01 MW (max).
 CPU Time for PAO integrals:        12.56 sec. Elapsed time:    12.77 sec. Memory usage:     6.69 MW (max).
 CPU Time for PAO integrals:         0.00 sec. Elapsed time:     0.00 sec. Memory usage:     3.03 MW (max).
 CPU Time for PAO amplitudes:        0.70 sec. Elapsed time:     0.70 sec. Memory usage:     5.86 MW (max).

 Generating OSVs using PAO(PERT) amplitudes, throsv= 1.0D-09

 Minimum OSV orbital domain size:        107
 Maximum OSV orbital domain size:        264
 Average OSV orbital domain size:      145.1

 CPU Time for OSV_generate:          0.25 sec. Elapsed time:     0.25 sec. Memory usage:     4.84 MW (max).

 Computing distant pair energies using multipole approximation up to order   3

 CPU time for computing multipole integrals (PAO/LMO):         1.10 sec
 CPU time for transforming integrals to OSV domains:           0.01 sec
 CPU time for distant pair energies:                           1.44 sec

 Distant pairs selected using the multipole order 3,  thrdist=1.0D-06  thrvdist=1.0D-07

 Semi-canonical distant pair energies, multipole-orders 1-3    0.00000000  0.00000000  0.00000000


 CPU Time for osv_mltp:              1.41 sec. Elapsed time:     1.45 sec. Memory usage:     1.99 MW (max).

 Number of strong pairs:                 253
 Number of close pairs:                    0
 Number of weak pairs:                     0
 Number of distant pairs:                  0  (treated by iterative multipole approximation, thrdist= 1.0D-06)
 Number of very distant pairs:             0  (treated by non-iterative multipole approximation, thrvdist= 1.0D-07)
 Total number of pairs in LMP2:          253

 Number of pairs per orbital (min, max, average):

 Strong pairs:              22    22    22.0
 Close pairs:                0     0     0.0
 Weak  pairs:                0     0     0.0
 Distant  pairs:             0     0     0.0
 Very distant pairs:         0     0     0.0

 CPU Time for Distribute_pairs:      0.00 sec. Elapsed time:     0.00 sec. Memory usage:     1.99 MW (max).

 Number of residual matrices on current processor:      253
 Number of amplitude matrices on current processor:     253

 Minimum OSV pair domain size:           107
 Maximum OSV pair domain size:           461
 Average OSV pair domain size:         277.6
 Total number of OSVs:                  3192
 Total number of OSV amplitudes:    20515362

 CPU Time for OSV_pairdom:           7.18 sec. Elapsed time:     7.32 sec. Memory usage:    22.46 MW (max).
 CPU Time for OSV integrals:        23.87 sec. Elapsed time:    24.84 sec. Memory usage:    49.12 MW (max).
 CPU Time for OSV_smatrix:           0.20 sec. Elapsed time:     0.24 sec. Memory usage:    42.75 MW (max).

 nosvmx= 461  nosvt= 3192  lens=         0  lenr=  20297185  lent=  20515362  leng=  20515362  lenw=  20468130  lenosv=    212521

 Generating PNOs using OSV(SC) amplitudes, THRPNO_EN=0.9970,  THRPNO_OCC=1.0D-08,  KEEP_DIAG=T  THRPNO_DIAG=0.0D+00

 Generating PNOs for LCCSD with thresholds: THREN_CC:  0.99000, THRPNO_CC:1.0D-07

                                                PNO-LMP2     PNO_LCCSD
 Minimum PNO domain size:                            69            33
 Maximum PNO domain size:                           176           100
 Average PNO domain size:                         106.2          63.4
 Total number of PNOs:                            26862         16030
 Total number of PNO amplitudes:                2954098
 Local number of PNO amplitudes:                2954098
 Length of local PNO residual:                  2954098
 Length of local W-matrix:                      7660744

 Semi-canonical OSV correlation energy:     -1.42791549
 Semi-canonical PNO correlation energies:   -1.42752301   -1.42561918

 Semi-canonical domain correction:          -0.00039248   -0.00229631

 CPU Time for PNO_generate:          5.00 sec. Elapsed time:     5.21 sec. Memory usage:    46.04 MW (max).

 Local length of PNO overlap matrix for PNO-LMP2:   58089584  Number of blocks:    5082  number of pairs   253

 GA space for pno_smat:             58.09 MW (tot),             58.09 MW (min),             58.09 MW (max), using processor specific storage

 CPU Time for READ_OSV_SBUF:         0.02 sec. Elapsed time:     0.04 sec. Memory usage:    17.17 MW (max).
 CPU Time for PNO_SMAT:              3.22 sec. Elapsed time:     3.60 sec. Memory usage:    17.14 MW (max).

 Denominator shift:          0.2000

 ITER.      SQ.NORM     CORR.ENERGY   TOTAL ENERGY   ENERGY CHANGE     VAR    DIIS
   1      0.58891428    -1.45578441  -274.49889229    -1.45578441  0.78D-02   1  1
   2      0.62421225    -1.47730705  -274.52041493    -0.02152264  0.50D-03   2  2
   3      0.65473821    -1.47873555  -274.52184343    -0.00142849  0.24D-04   3  3
   4      0.65800901    -1.47879528  -274.52190316    -0.00005973  0.18D-05   4  4
   5      0.65779130    -1.47879996  -274.52190784    -0.00000468  0.11D-06   5  5
   6      0.65771220    -1.47880023  -274.52190811    -0.00000027  0.80D-08   6  6

                                            PNO-LMP2        PNO-LMP2_CORR
  PNO-LMP2 correlation energy          -1.478800230302    -1.479192710970
 !PNO-LMP2 total energy              -274.521908110480  -274.522300591148

 CPU Time for PNO-LMP2:              7.80 sec. Elapsed time:     8.50 sec. Memory usage:    19.47 MW (max).

 PNO-LMP2 energy contributions
 =============================

                            OSV-LMP2(SC)     PNO-LMP2    PNO-SCS-LMP2   %(PNO/OSV)  AVDOM(PNO)
 Strong pair energy:        -1.42791549    -1.47880023    -1.47707265     103.56      106.2
 Close pair energy:          0.00000000     0.00000000     0.00000000       0.00        0.0
 Weak pair energy :          0.00000000     0.00000000     0.00000000       0.00        0.0
 Distant pair energy:        0.00000000     0.00000000     0.00000000       0.00        0.0
 Total correl. energy:      -1.42791549    -1.47880023    -1.47707265     103.56      106.2

 GA space for pno_smat:             20.42 MW (tot),             20.42 MW (min),             20.42 MW (max), using processor specific storage

 CPU Time for READ_OSV_SBUF:         0.08 sec. Elapsed time:     0.18 sec. Memory usage:    10.39 MW (max).
 CPU Time for PNO_SMAT:              2.05 sec. Elapsed time:     2.19 sec. Memory usage:    10.35 MW (max).

 Denominator shift:          0.2000

 ITER.      SQ.NORM     CORR.ENERGY   TOTAL ENERGY   ENERGY CHANGE     VAR    DIIS
   1      0.65702263    -1.47554357  -274.51865145    -1.47554357  0.27D-04   1  1
   2      0.65606767    -1.47571010  -274.51881798    -0.00016654  0.46D-06   2  2
   3      0.65544670    -1.47571191  -274.51881979    -0.00000181  0.19D-07   3  3
   4      0.65534407    -1.47571197  -274.51881985    -0.00000006  0.87D-09   4  4

 LMP2 results with LCCSD domains:
 ================================
                                            PNO-LMP2        PNO-LMP2_CORR
  PNO-LMP2 correlation energy          -1.475711971629    -1.479192710970
  PNO-LMP2 total energy              -274.518819851807  -274.522300591148

  PNO-LMP2 domain correction           -0.003480739341

 CPU Time for PNO-LMP2(tot):        65.73 sec. Elapsed time:    69.08 sec. Memory usage:    58.54 MW (max).

 Energy thresholds for pair classes:  THRCLOSE=1.00D-04  THRWEAK= 1.00D-05  THRDISTC=0.00D+00

 Strong and close pairs optimized in LCCSD, close pair residuals are approximated (keepcls=1).

 Number of optimized pairs:         253
 Number of strong pairs:            235
 Number of close pairs:              18
 Number of weak pairs:                0
 Total number of pairs:             253

 Length of pair-specific S-blocks:   483.64 MW,  length of unique S-blocks   127.96 MW

 CPU Time for LCC_opdom:             0.11 sec. Elapsed time:     0.14 sec. Memory usage:     1.61 MW (max).
 CPU Time for LCC_float:             0.01 sec. Elapsed time:     0.01 sec. Memory usage:     1.02 MW (max).

 CPU Time for LCC_opdom:             0.10 sec. Elapsed time:     0.10 sec. Memory usage:     1.61 MW (max).
 CPU Time for LCC_load:              0.02 sec. Elapsed time:     0.05 sec. Memory usage:     8.17 MW (max).

 Estimated GA usage of PNO-LCCSD integrals:                      0.00 MW
 Maximum GA usage after allocating GAs for CCSD integrals:       0.00 MW

 CPU Time for CCSD integrals:     1025.92 sec. Elapsed time:  1101.66 sec. Memory usage:    54.77 MW (max).

 GA space for pno_smat:            127.96 MW (tot),            127.96 MW (min),            127.96 MW (max), using node specific storage
 CPU Time for OSV_SMAT_LCC:          0.22 sec. Elapsed time:     0.27 sec. Memory usage:    61.46 MW (max).
 CPU Time for READ_OSV_SBUF:         0.00 sec. Elapsed time:     0.00 sec. Memory usage:    61.46 MW (max).
 CPU Time for PNO_SMAT_LCC:         12.29 sec. Elapsed time:    13.20 sec. Memory usage:    56.19 MW (max).

 Current GA usage:                   0.00 MW.  Maximum GA usage up to this point:            0.00 MW

 Solving PNO-LCCSD equations

 K-Operators in non-linear terms are projected

 Close pairs are approximated (keepcls=1, max_ijkl=0, skip_ijkl=0, maxik=0)

 Weak pairs pairs are treated by CEPA(2)

 Denominator shifts:     0.15 (singles),  0.20 (doubles)

 ITER.      SQ.NORM     CORR.ENERGY   TOTAL ENERGY   ENERGY CHANGE     VAR        VART1     DIIS     TIME
    1     0.67014680    -1.44620914  -274.48931702     0.02950284    0.13D-01    0.15D-01   1  1    81.13
    2     0.66452516    -1.51357464  -274.55668252    -0.06736551    0.28D-02    0.43D-03   2  2   164.12
    3     0.75457717    -1.52093620  -274.56404408    -0.00736156    0.39D-03    0.35D-03   3  3   244.64
    4     0.78736898    -1.52334982  -274.56645770    -0.00241362    0.71D-04    0.56D-04   4  4   325.08
    5     0.79722629    -1.52402938  -274.56713727    -0.00067956    0.12D-04    0.30D-04   5  5   407.48
    6     0.80120870    -1.52418997  -274.56729785    -0.00016059    0.29D-05    0.13D-04   6  6   488.44
    7     0.80364574    -1.52430192  -274.56740980    -0.00011194    0.11D-05    0.58D-05   7  7   568.87
    8     0.80495851    -1.52437261  -274.56748049    -0.00007070    0.41D-06    0.21D-05   8  8   650.31
    9     0.80576694    -1.52441217  -274.56752005    -0.00003956    0.17D-06    0.50D-06   1  8   729.80
   10     0.80611155    -1.52444095  -274.56754883    -0.00002878    0.47D-07    0.14D-06   2  8   809.85
   11     0.80625575    -1.52443863  -274.56754651     0.00000232    0.12D-07    0.35D-07   3  8   890.44
   12     0.80631818    -1.52444282  -274.56755070    -0.00000418    0.34D-08    0.10D-07   4  8   971.45
   13     0.80632713    -1.52444028  -274.56754816     0.00000254    0.95D-09    0.31D-08   5  8  1051.70
   14     0.80634652    -1.52444085  -274.56754873    -0.00000057    0.32D-09    0.99D-09   6  8  1132.10

 Convergence reached

  T1 diagnostic   0.02064
  D1 diagnostic   0.08610
   
  Reference energy                   -273.043107880177

  Correlation contributions without domain correction:

  PNO-LCCSD singles energy              0.000830811123
  PNO-LCCSD strong pair energy         -1.524517093303
  PNO-LCCSD close pair energy          -0.000754569248
  PNO-CEPA(2) weak pair energy          0.000000000000
  PNO-SCS-LMP2 distant pair energy      0.000000000000

  Results including domain correction:

  PNO-LMP2 correction                  -0.003480739341
  PNO-LCCSD correlation energy         -1.527921590768
 !PNO-LCCSD total energy             -274.571029470946

 Maximum stack memory usage in PNO-LCCSD iterations: 62.75 MW
 Maximum GA memory usage up to this point: .00 MW
 Maximum local disk usage in MB: 11779.12 (current)   11779.12 (maximum)   11779.12 (average)
 Maximum local disk usage per node: 11779.12 MB

 CPU Time for PNO_LCCSD(it):       983.19 sec. Elapsed time:  1132.14 sec. Memory usage:    55.93 MW (max).

 Selecting triples using THRCLOSE_T_PRE = 0.100E-03, THRWEAK_T_PRE = 0.000E+00, TRIPTYP = 2
 Selected 2001 of 2002 triples

 DF domains for (T) with RDFDOM_T: .0, IDFDOM_T: 0

 Options for (T) corrections
   Post (T0) method -  (T1): F, iterative (T): T
   Iterative (T) - THRCONV_TRIP: 0.100E-05, SKIP_TIJKW: F, THRFINT_EN: 0.100E-03
   Triple-specific virtuals - TNO
   PNO thresholds - (T0): 0.100E-08, post (T0): 0.100E-06
   LMO domains - MODOM_T0: 2
   Technical settings - TITER_DYNAMIC: F, USE_SOSV: F


 Triple PAO domain sizes: 667 (maximum), 518.2 (average) 533.8 (average, cubed)
 Triple OSV domain sizes: 649 (maximum), 401.8 (average) 418.5 (average, cubed)
 Triple PNO domain sizes: 223 (maximum), 138.9 (average) 142.7 (average, cubed)
 Triple PNO (iterations) domain sizes: 116 (maximum), 66.9 (average) 70.5 (average, cubed)

 Estimated GA usage of (T) amplitudes 768.93 MW


                                         Large domain       Small domain       Domain corr.
  Triples [T0] contribution            -0.104763777156    -0.102692049941    -0.002071727215
  Triples (T0) contribution            -0.100597802897    -0.098551021797    -0.002046781100

  PNO-LCCSD(T0) corr. energy           -1.628519393666
  PNO-LCCSD(T0) total energy         -274.671627273843


 Screening triples with THRTRIP_IT = 0.100E-06
 1969 out of 2001 ( 98.40%) triples survived for the iterations

 ITER.   [T] ENERGY    ENERGY CHANGE    TIME
    0    -0.10268945     0.00000000     0.00
    1    -0.10639987    -0.00371042   453.87
    2    -0.10722363    -0.00082376   902.76
    3    -0.10729479    -0.00007116  1334.75
    4    -0.10731849    -0.00002370  1764.07
    5    -0.10732100    -0.00000251  2192.91
    6    -0.10732223    -0.00000123  2621.80
    7    -0.10732235    -0.00000012  3051.75

 Convergence reached


                                         Small domain        Corrected
  Triples [T] contribution             -0.107324955032    -0.109396682246
  Triples (T) contribution             -0.102925272530    -0.104972053630

  PNO-LCCSD(T) corr. energy            -1.632893644398
 !PNO-LCCSD(T) total energy          -274.676001524576


 GA_Put processed 6521.96 MW globally, average elapsed time per process: 23.23 sec
 GA_Get processed 505615.27 MW globally, average elapsed time per process: 752.61 sec

 REMARK: Memory usage printed may not be correct.
 CPU Time for PNO-LCCSD(T)(tot):  9929.40 sec. Elapsed time: 10479.95 sec. Memory usage:    61.46 MW (max).

 Direct file usage                  43.59 MB (local),           43.59 MB (max),             43.59 MB (tot)

 Max. memory usage (overall):       61.46 MW (local),           61.46 MW (max),             61.46 MW (tot)
 Max. GA usage (overall):            0.00 MW (local),            0.00 MW (max),              0.00 MW (tot)
 Max. memory+GA usage:              61.46 MW (local),           61.46 MW (max),             61.46 MW (tot)


 **********************************************************************************************************************************
 DATASETS  * FILE   NREC   LENGTH (MB)   RECORD NAMES
              1      19       47.78       500      610      700      900      950      970     1000      129      960     1100   
                                          VAR    BASINP    GEOM    SYMINP    ZMAT    AOBASIS   BASIS     P2S    ABASIS      S 
                                         1400     1410     1200     1210     1080     1600     1650     1700      960(1)
                                           T        V       H0       H01     AOSYM     SMH    MOLCAS    OPER    ABASIS    

              2       4       14.68       700     1000      520     2100   
                                         GEOM     BASIS   MCVARS     RHF  

 PROGRAMS   *        TOTAL  LCCSD(T)     DF-HF       INT
 CPU TIMES  *     10197.99   9995.41    201.84      0.63
 REAL TIME  *     10761.37 SEC
 DISK USED  *       483.25 MB
 **********************************************************************************************************************************

 PNO-LCCSD(T)/aug-cc-pVTZ energy=   -274.676001524576

    PNO-LCCSD(T)           DF-HF
   -274.67600152   -273.04310788
 **********************************************************************************************************************************
 Molpro calculation terminated
