
 Primary working directories    : /var/tmp/pbs.368534.bp1/molpro.bNYd9jRekt
 Secondary working directories  : /var/tmp/pbs.368534.bp1/molpro.bNYd9jRekt
 Wavefunction directory         : /home/lb17101/molpro_test/inp/lowmem/
 Main file repository           : /home/lb17101/molpro_test/inp/lowmem/

 id        : uob

 Nodes                         nprocs
 bp1-01-02-01.data.bp.acrc.priv    1

 Using customized tuning parameters: mindgm=1; mindgv=20; mindgc=4; mindgr=1; noblas=0; minvec=7
 default implementation of scratch files=df  


 Variables initialized (934), CPU time= 0.01 sec
 geomtyp=xyz
 nosym
 noorient
 geometry={
 C       2.682553142765      -1.439438488647      -0.661046844118
 C       1.943855644586      -0.231765356275      -0.093682523204
 C       0.214003469184       0.800627472803       0.703680408037
 C      -0.272761558326      -0.082655788263       1.716016419494
 C      -0.783026666974       1.019409382396      -0.183699731572
 C      -2.437479436159       1.639341869019       0.547052656472
 C      -1.095843845065      -0.587960645040      -1.347071314975
 H       2.668871645538      -3.017723564592      -1.164885544584
 H       3.688844315079      -1.056204110642      -1.589804766081
 H       1.708153655008      -1.403899383845      -1.577207273869
 H       1.747952994639      -0.377012812560       1.281012291903
 H       2.138182319334       0.217769833242      -1.272152822352
 H       0.267994238462      -0.243965199797      -0.972520432611
 H       0.147259620911      -1.583197887363       1.448767398382
 H      -0.544480461986       0.439143127216       2.822159196983
 H      -1.852931601343       0.238259806771       1.810667160475
 H      -1.233712084174       1.383762226753      -1.491973354623
 H      -3.877201474844       1.925908017288       0.125626163703
 H      -2.976558319304       1.095695877634       1.546747540189
 H      -2.075916852998       2.840743486441       0.399549121191
 H      -1.718655188426      -0.759872452733      -2.441159919966
 H      -0.314343654904      -1.300766424846      -1.886688127806
 H      -2.333583469738      -1.375180840608      -1.110818580992
 }
 basis=avtz
 local,thrbp=0.985
 df-hf
 df-luccsd
 Commands  initialized (763), CPU time= 0.00 sec, 617 directives.
 Default parameters read. Elapsed time= 0.08 sec

 Checking input...
 Passed
1


                                         ***  PROGRAM SYSTEM MOLPRO  ***
                                       Copyright, TTI GmbH Stuttgart, 2015
                                    Version 2019.2 linked Oct 25 2019 22:50:27


 **********************************************************************************************************************************
 LABEL *                                                                                 
  64 bit serial version                                                                  DATE: 23-Sep-20          TIME: 04:04:07  
 **********************************************************************************************************************************

 SHA1:             8dbd9ae1082e4ce945b0f27595c9eb2d4aa09004
 **********************************************************************************************************************************
 SETTING GEOMTYP        =    XYZ

 Variable memory set to 1024000000 words,  buffer space 

 ZSYMEL=NOSYM

 SETTING BASIS          =    AVTZ


 Recomputing integrals since basis changed


 Using spherical harmonics

 Library entry C      S aug-cc-pVTZ          selected for orbital group  1
 Library entry C      P aug-cc-pVTZ          selected for orbital group  1
 Library entry C      D aug-cc-pVTZ          selected for orbital group  1
 Library entry C      F aug-cc-pVTZ          selected for orbital group  1
 Library entry H      S aug-cc-pVTZ          selected for orbital group  2
 Library entry H      P aug-cc-pVTZ          selected for orbital group  2
 Library entry H      D aug-cc-pVTZ          selected for orbital group  2


 PROGRAM * SEWARD (Integral evaluation for generally contracted gaussian basis sets)     Author: Roland Lindh, 1990

 Geometry written to block  1 of record 700


 Point group  C1  



 ATOMIC COORDINATES

 NR  ATOM    CHARGE       X              Y              Z

   1  C       6.00    5.069290754   -2.720144517   -1.249197491
   2  C       6.00    3.673354794   -0.437973049   -0.177034312
   3  C       6.00    0.404407946    1.512966651    1.329763250
   4  C       6.00   -0.515444643   -0.156196802    3.242801058
   5  C       6.00   -1.479705949    1.926404542   -0.347142182
   6  C       6.00   -4.606168569    3.097907157    1.033779696
   7  C       6.00   -2.070844742   -1.111084591   -2.545595856
   8  H       1.00    5.043436472   -5.702671057   -2.201314646
   9  H       1.00    6.970905472   -1.995936501   -3.004295599
  10  H       1.00    3.227942587   -2.652985342   -2.980489789
  11  H       1.00    3.303152438   -0.712450961    2.420762394
  12  H       1.00    4.040578988    0.411525343   -2.404020423
  13  H       1.00    0.506435714   -0.461027412   -1.837797268
  14  H       1.00    0.278280353   -2.991810408    2.737773601
  15  H       1.00   -1.028918953    0.829860240    5.333107962
  16  H       1.00   -3.501533254    0.450245781    3.421665036
  17  H       1.00   -2.331377956    2.614931630   -2.819421025
  18  H       1.00   -7.326848917    3.639438694    0.237399043
  19  H       1.00   -5.624880017    2.070565125    2.922929235
  20  H       1.00   -3.922914310    5.368227180    0.755038412
  21  H       1.00   -3.247787609   -1.435950825   -4.613123675
  22  H       1.00   -0.594023417   -2.458092295   -3.565323844
  23  H       1.00   -4.409833647   -2.598715160   -2.099142892

 Bond lengths in Bohr (Angstrom)

  1- 2  2.882096060   1- 9  2.687189080   1-10  2.528328786   2-11  2.638358511   2-12  2.411631868
       ( 1.525139555)       ( 1.421999223)       ( 1.337933975)       ( 1.396159198)       ( 1.276180626)

  3- 4  2.700360916   3- 5  2.555939727   4-15  2.367561470   5- 6  3.613050252   5- 7  3.795916735
       ( 1.428969458)       ( 1.352545056)       ( 1.252859575)       ( 1.911943855)       ( 2.008712631)

  5-17  2.703992870   6-19  2.379514792   6-20  2.387233983   7-13  2.750623152   7-21  2.401125541
       ( 1.430891405)       ( 1.259185001)       ( 1.263269821)       ( 1.455567088)       ( 1.270620917)

  7-22  2.243942101   7-23  2.807709752
       ( 1.187443022)       ( 1.485776016)

 Bond angles

  1- 2-11  110.60185353   1- 2-12   82.04758984   2- 1- 9  111.85874161   2- 1-10   83.16318716

  3- 4-15  116.22597298   3- 5- 6  116.07621213   3- 5- 7  111.42838688   3- 5-17  150.83590357

  4- 3- 5  108.28084015   5- 6-19  122.27009448   5- 6-20   90.92071704   5- 7-13   61.04910822

  5- 7-21  133.10170697   5- 7-22  129.87009688   5- 7-23  117.49141387   6- 5- 7  110.24646695

  6- 5-17   89.67563526   7- 5-17   67.98650207   9- 1-10   93.49611345  11- 2-12  165.29611886

 13- 7-21  135.46484656  13- 7-22   69.03125817  13- 7-23  149.86679319  19- 6-20  128.74334918

 21- 7-22   81.37758029  21- 7-23   69.93397644  22- 7-23  107.60617187

 NUCLEAR CHARGE:                   58
 NUMBER OF PRIMITIVE AOS:         901
 NUMBER OF SYMMETRY AOS:          806
 NUMBER OF CONTRACTIONS:          690   (  690A   )
 NUMBER OF CORE ORBITALS:           7   (    7A   )
 NUMBER OF VALENCE ORBITALS:       44   (   44A   )


 NUCLEAR REPULSION ENERGY  298.55278751


 Eigenvalues of metric

         1 0.418E-05 0.508E-05 0.519E-05 0.759E-05 0.101E-04 0.111E-04 0.121E-04 0.141E-04


 OPERATOR DM      FOR CENTER  0  COORDINATES:    0.000000    0.000000    0.000000


 **********************************************************************************************************************************
 DATASETS  * FILE   NREC   LENGTH (MB)   RECORD NAMES
              1      18       47.71       500      610      700      900      950      970     1000      129      960     1100   
                                          VAR    BASINP    GEOM    SYMINP    ZMAT    AOBASIS   BASIS     P2S    ABASIS      S 
                                         1400     1410     1200     1210     1080     1600     1650     1700   
                                           T        V       H0       H01     AOSYM     SMH    MOLCAS    OPER   

 PROGRAMS   *        TOTAL       INT
 CPU TIMES  *         0.95      0.84
 REAL TIME  *         1.50 SEC
 DISK USED  *        48.55 MB
 **********************************************************************************************************************************


 PROGRAM * RHF-SCF (CLOSED SHELL)       Authors: W. Meyer, H.-J. Werner


 NUMBER OF ELECTRONS:      29+   29-    SPACE SYMMETRY=1    SPIN SYMMETRY: Singlet 
 CONVERGENCE THRESHOLDS:    1.00E-05 (Density)    1.00E-07 (Energy)
 INTEGRAL THRESHOLDS:       1.00E-12 (Initial)    1.00E-12 (Final)
 MAX. NUMBER OF ITERATIONS:       60
 INTERPOLATION TYPE:            DIIS
 INTERPOLATION STEPS:              2 (START)      1 (STEP)
 LEVEL SHIFTS:                  0.00 (CLOSED)  0.00 (OPEN) 




 Basis set AUG-CC-PVTZ/JKFIT generated.  Number of basis functions:   1464 

 Orbital guess generated from atomic densities. Full valence occupancy:   51
 Using density fitting in orbital guess

 Coulomb and exchange fitting
 Thresholds for fitting:       THRAO_COUL= 1.0D-15    THRAO_EXCH= 1.0D-13    THRMO= 1.0D-12    THRPROD= 1.0D-12    THRASM= 1.0D-12
                               THR2HLF=    1.0D-12

 Molecular orbital dump at record        2100.2

 Initial occupancy:  29

 ITERATION   DDIFF            GRAD            ENERGY        2-EL.EN.            DIPOLE MOMENTS         DIIS   CPU(IT)  CPU(TOT)  ORB.
    1      0.000D+00      0.000D+00      -272.87267668    778.146323   -0.54933   -1.61897   -2.91738    0     13.7     30.6     start
    2      0.000D+00      0.211D-02      -272.96386001    769.062518   -0.04734    0.73063    0.29843    1     14.7     45.3     diag
    3      0.310D-02      0.171D-02      -273.03066748    774.538437   -0.39874   -0.19413   -1.01807    2     14.4     59.8     diag
    4      0.158D-02      0.411D-03      -273.03949995    773.651173   -0.40199   -0.01762   -0.88641    3     14.3     74.0     diag
    5      0.621D-03      0.180D-03      -273.04140188    773.607213   -0.45426    0.03389   -0.78572    4     14.6     88.7     diag
    6      0.276D-03      0.813D-04      -273.04225477    773.608104   -0.51255    0.07012   -0.77936    5     14.1    102.8     diag
    7      0.206D-03      0.505D-04      -273.04264087    773.573071   -0.55291    0.08159   -0.76076    6     14.2    117.0     diag
    8      0.134D-03      0.334D-04      -273.04292694    773.563105   -0.60709    0.09507   -0.75680    7     13.5    130.5     diag
    9      0.146D-03      0.211D-04      -273.04305580    773.576255   -0.63551    0.10371   -0.74445    8     14.3    144.7     diag
   10      0.115D-03      0.117D-04      -273.04309387    773.560706   -0.65269    0.10375   -0.74311    9     14.2    158.9     orth
   11      0.653D-04      0.641D-05      -273.04310482    773.559184   -0.65439    0.10284   -0.74190    9     14.3    173.2     diag
   12      0.399D-04      0.354D-05      -273.04310705    773.561989   -0.65393    0.10147   -0.74160    9     13.9    187.1     diag
   13      0.157D-04      0.175D-05      -273.04310771    773.558552   -0.65177    0.10021   -0.74206    9     14.1    201.3     diag
   14      0.950D-05      0.967D-06      -273.04310784    773.560042   -0.65095    0.09970   -0.74249    9     13.9    215.2     diag
   15      0.345D-05      0.442D-06      -273.04310788    773.559529   -0.65050    0.09947   -0.74255    9     13.7    228.8     diag
   16      0.198D-05      0.252D-06      -273.04310788    773.559765   -0.65045    0.09946   -0.74264    0     13.7    242.6     orth

 Final occupancy:  29

 !RHF STATE  1.1 Energy              -273.043107880177
 Nuclear energy                       298.55278751
 One-electron energy                 -958.37577797
 Two-electron energy                  386.77988257
 Virial quotient                       -1.01225393
 !RHF STATE  1.1 Dipole moment         -0.65045026     0.09945654    -0.74264371
 Dipole moment /Debye                  -1.65317136     0.25277675    -1.88748841

 Orbital energies:

         1.1          2.1          3.1          4.1          5.1          6.1          7.1          8.1          9.1         10.1
    -11.377270   -11.339709   -11.335623   -11.334359   -11.312803   -11.279610   -11.270173    -1.116881    -1.015994    -0.931197

        11.1         12.1         13.1         14.1         15.1         16.1         17.1         18.1         19.1         20.1
     -0.892368    -0.850359    -0.736259    -0.670806    -0.626958    -0.607285    -0.588043    -0.558742    -0.535744    -0.506925

        21.1         22.1         23.1         24.1         25.1         26.1         27.1         28.1         29.1         30.1
     -0.495074    -0.483050    -0.454633    -0.415524    -0.394428    -0.367405    -0.339534    -0.293014    -0.278237     0.009839

        31.1
      0.023280


 HOMO     29.1    -0.278237 =      -7.5712eV
 LUMO     30.1     0.009839 =       0.2677eV
 LUMO-HOMO         0.288076 =       7.8389eV


 **********************************************************************************************************************************
 DATASETS  * FILE   NREC   LENGTH (MB)   RECORD NAMES
              1      18       47.71       500      610      700      900      950      970     1000      129      960     1100   
                                          VAR    BASINP    GEOM    SYMINP    ZMAT    AOBASIS   BASIS     P2S    ABASIS      S 
                                         1400     1410     1200     1210     1080     1600     1650     1700   
                                           T        V       H0       H01     AOSYM     SMH    MOLCAS    OPER   

              2       4       14.68       700     1000      520     2100   
                                         GEOM     BASIS   MCVARS     RHF  

 PROGRAMS   *        TOTAL     DF-HF       INT
 CPU TIMES  *       243.63    242.68      0.84
 REAL TIME  *       249.79 SEC
 DISK USED  *       483.25 MB
 **********************************************************************************************************************************


 Input parameters for LOCAL:

 LOCAL  =    5.000000
 THRLOC =   -1.000000

 PROGRAM * CCSD (Unrestricted open-shell coupled cluster)     Authors: C. Hampel, H.-J. Werner, 1991, M. Deegan, P.J. Knowles, 1992

                    Density fitting coupled cluster methods (ITF), W. Gyorffy, 2015

                              Local implementation by Y. Liu and H.-J. Werner, 2009


 Setting use_dist= 1

 Basis set AUG-CC-PVTZ/MP2FIT generated. Number of basis functions:   1478 

 Convergence thresholds:  THRVAR = 1.00D-08  THRDEN = 1.00D-06

 Number of core orbitals:           7 (   7 )
 Number of closed-shell orbitals:  22 (  22 )
 Number of external orbitals:     661 ( 661 )

 Options for lccsd:

   local=       4
   iopdom=      5
   isdom=       2
   i3ext=       3
   i4ext=       1

 Using operators K(Cij)  

 icfit_3ext= 2  icfit_4ext= 2
 locfit_ccsd= 0  locfit_2ext= 0  locfit_3ext= 0  locfit_4ext= 0  locfit=-1

 Molecular orbitals read from record     2100.2  Type=RHF/CANONICAL (state 1.1)

 Local correlation treatment
 ===========================

 LOCAL=5  IBASO=0  NONORM=0  IDLCOR=2  KEEPCORE=0  SKIPD=3  LOCSNG= 0  LOCMUL=0  CANBLK=0  SHELLPERM=F

 Thresholds:

 THRLOC=  1.00D-06 (Smallest allowed eigenvalue in domain redundancy check)
 THRGAP=  1.00D-06 (Minimum eigenvalue gap in domain redundancy check)
 THRLOCT= 1.00D-06 (Smallest allowed eigenvalue in domain redundancy check of triples)
 THRGAPT= 1.00D-06 (Minimum eigenvalue gap in domain redundancy check of triples)
 THRORB=  1.00D-06 (Norm of projected orbitals)
 THRMP2=  1.00D-08 (Neglect of small Fock matrix elements)

 Orbital domain selection criteria:

 CHGFRAC=  0.985   CHGMIN=   0.010   CHGMINH=  0.030   CHGMAX=  0.500   CHGMIN_PAIRS=  0.200    MERGEDOM=0   CANBLK=0

 Weak and distant pair selection criteria:

 RCLOSE= 1.000   RWEAK= 3.000   RDIST= 8.000   RVDIST=15.000   KEEPCLS=0   KEEPCLS_3EXT=0   MP4CLS=0

 Options for approximating pair-single interactions:   JEDOM= 0   RMAX3X= 0.000   SKIPGE=0


 Pipek-Mezey localisation finished (npass= 29  nrot=   5240  Thresh=  0.10D-08  CPU=   0.03 sec)

 Ordering localized MOs according to charge centroids

 Generating projected atomic orbitals

 Deleting projected core orbital    1.1 (C 1s)    Norm=  0.10D-02
 Deleting projected core orbital   47.1 (C 1s)    Norm=  0.93D-03
 Deleting projected core orbital   93.1 (C 1s)    Norm=  0.19D-02
 Deleting projected core orbital  139.1 (C 1s)    Norm=  0.97D-03
 Deleting projected core orbital  185.1 (C 1s)    Norm=  0.11D-02
 Deleting projected core orbital  231.1 (C 1s)    Norm=  0.90D-03
 Deleting projected core orbital  277.1 (C 1s)    Norm=  0.13D-02

 Ranking of atoms according to Loewdin charges

 Orbital domains

   Orb.   Atom     Charge      Crit.
   8.1    6 C       0.87       0.000
         18 H       0.71       0.996
   9.1    6 C       0.86       0.000
         19 H       0.65       0.982
         16 H       0.18       0.990
  10.1    6 C       0.92       0.000
         20 H       0.71       0.996
  11.1    7 C       0.85       0.000
         23 H       0.65       0.992
  12.1    6 C       0.71       0.000
          5 C       0.68       0.988
  13.1    7 C       0.89       0.000
         21 H       0.60       0.993
  14.1    4 C       0.77       0.000
         16 H       0.53       0.983
         15 H       0.18       0.985
          3 C       0.17       0.990
  15.1    5 C       0.86       0.000
         17 H       0.61       0.980
          7 C       0.14       0.991
  16.1    7 C       0.72       0.928
          5 C       0.37       0.978
         13 H       0.27       0.990
  17.1    7 C       0.84       0.000
         22 H       0.58       0.983
         13 H       0.21       0.988
  18.1    4 C       0.90       0.000
         15 H       0.69       0.991
  19.1    3 C       0.81       0.000
          5 C       0.79       0.987
  20.1    3 C       0.81       0.000
          4 C       0.73       0.989
  21.1    4 C       0.82       0.000
         14 H       0.68       0.990
  22.1    3 C       1.03       0.954
          5 C       0.38       0.981
          4 C       0.26       0.989
  23.1    2 C       0.63       0.858
          3 C       0.37       0.946
         13 H       0.25       0.970
          5 C       0.15       0.985
         12 H       0.11       0.986
  24.1    2 C       0.85       0.000
         11 H       0.62       0.977
          3 C       0.15       0.989
  25.1    1 C       0.81       0.000
         10 H       0.56       0.983
          2 C       0.24       0.995
  26.1    2 C       0.87       0.000
         12 H       0.60       0.980
          1 C       0.23       0.993
  27.1    1 C       0.81       0.000
          2 C       0.73       0.995
  28.1    1 C       0.87       0.000
          8 H       0.70       0.995
  29.1    1 C       0.85       0.000
          9 H       0.69       0.985
          2 C       0.16       0.995

 Number of strong pairs:          91
 Number of close pairs:           19     Rmin=      2.556
 Number of weak pairs:           127     Rmin=      3.052
 Number of distant pairs:         16     Rmin=      8.076

 Average pair domain sizes:      172    (strong pairs: 145, close pairs: 214, weak pairs: 184, distant pairs: 174)

 Smallest S-eigenvalue of domains:  0.1689D-04   Pair:  62  Symmetry: 1

 United MP2 domains:        min= 683  max= 683  average= 683
 United LUCCSD domains:     min= 182  max= 591  average= 396

 Number of correlated orbitals in LUCCSD:  22
 Total United LUCCSD domain size:         683

 CPU-time for pair domains:             2.57 SEC

 Distance criteria for operator lists:     RMAXJ=      8.00  RMAXK=      8.00  RMAXL=     15.00
 Distance criteria for operator domains:   RDOMJ=      0.00  RDOMK=      8.00

 Using operator domains:    iopdom=5   sdom=2  kextyp=0   triptyp=2

 Number of orbital pairs:        253
 Length of K(kl) list:           253
 Number of operators K(kl):      253 (494.22 MB)   Domain sizes:    min= 136  max= 683  average= 482
 Length of J(kl) list     :      238
 Number of operators J(kl):      237 (123.19 MB)   Domain sizes:    min= 136  max= 522  average= 250
 Number of y,z intermediates:    340
 Number of operators J/K(E):     340 (307.84 MB)   Domain sizes:    min= 158  max= 522  average= 276


 File size for 4-external integrals using center quadruplets:   27.446 GB

 Number of N-1 electron functions:              44
 Number of N-2 electron functions:             946
 Number of singly external CSFs:              4296
 Number of doubly external CSFs:          23387570
 Total number of CSFs:                    23391866

 Number of correlated orbitals:                 22
 Number of distant pair functions:              16  (treated by MP2)
 Number of weak pair functions:                127  (treated by MP2)
 Number of strong pair functions:               91
 Total number of pair functions:               253
 Number of singly external local CSFs:        2148
 Number of doubly external local CSFs:     7848610 (all pairs)   2916702 (strong pairs)   4440568 (weak pairs)
 Total number of local CSFs:               7850759 (all pairs)   2918851 (strong pairs)

 Using 3-external integrals

 File size for 3-external integrals using MO/center triples:    12.350 GB

 AO-basis loaded. Number of functions:                 690

 Fitting-basis AUG-CC-PVTZ-MP2F loaded for 0-2-external integrals.

 Number of fitting functions:                     1478
 CPU time for 2-ext exchange integrals           18.54 sec, Elapsed time=     20.28 sec

 Using incore algorithm in dfasmbl_coul, locfit=0

 CPU time for 2-ext Coulomb integrals            20.81 sec, Elapsed time=     20.87 sec
 CPU time for DF-2ext transformation (total)     39.35 sec, Elapsed time=     41.15 sec
 Local fitting disabled for 3-ext integrals

 Fitting-basis AUG-CC-PVTZ-MP2F loaded for 3-external integrals.

 Number of fitting functions:                     1478
 CPU time for DF-3ext transformations           314.91 sec, Elapsed time=    355.15 sec (including assembly of 3ext integrals)

 Fitting-basis AUG-CC-PVTZ-MP2F loaded for 4-external integrals.

 Number of fitting functions:                     1478
 Distributing 4-ext file on two disks:          2149028109          1534649451          3683677560
 CPU time for DF-4ext transformations           408.67 sec, Elapsed time=    431.33 sec

 Reference energy:                   -273.04310788

 ITER.     SQ.NORM      CORR.ENERGY   TOTAL ENERGY   ENERGY CHANGE        DEN1      VAR(S)    VAR(P)  DIIS     TIME
   1      1.61889897    -1.43639132  -274.47949920    -1.43639132    -0.02409511  0.20D-09  0.13D-01  1  1   783.97
   2      1.64935904    -1.46271948  -274.50582736    -0.02632816    -0.00174234  0.47D-10  0.11D-02  2  2   798.99
   3      1.65069427    -1.46235995  -274.50546784     0.00035952    -0.00036251  0.98D-11  0.25D-03  3  3   813.59
   4      1.65106864    -1.46223542  -274.50534330     0.00012454    -0.00001187  0.27D-11  0.85D-05  4  4   828.57
   5      1.65123010    -1.46227302  -274.50538090    -0.00003760    -0.00000140  0.72D-12  0.10D-05  5  5   843.85
   6      1.65123403    -1.46225170  -274.50535958     0.00002131    -0.00000013  0.16D-12  0.93D-07  6  6   859.10
   7      1.65123444    -1.46224711  -274.50535499     0.00000459    -0.00000001  0.28D-13  0.64D-08  6  2   874.26
   8      1.65123448    -1.46224756  -274.50535544    -0.00000045    -0.00000000  0.59D-14  0.79D-09  6  1   889.71

 Spin contamination <S**2-Sz**2-Sz>     0.00000000

 Norm of t1 vector:      0.00006035      S-energy:    -0.00000000      T1 diagnostic:  0.00001218
 Norm of t2 vector:      0.80699100      P-energy:    -1.46224756
                                         Alpha-Beta:  -1.12205162
                                         Alpha-Alpha: -0.17009797
                                         Beta-Beta:   -0.17009797

 MP2 energy of close+weak+distant pairs    -0.10310140

 Reference energy                    -273.043107880177
 Correlation energy                    -1.462247558958
 !RHF-LRMP2 STATE  1.1 Energy        -274.505355439135

 Starting LUCCSD calculation

 Reference energy:                   -273.04310788

 ITER.     SQ.NORM      CORR.ENERGY   TOTAL ENERGY   ENERGY CHANGE        DEN1      VAR(S)    VAR(P)  DIIS     TIME
   1      1.62463429    -1.37027096  -274.41337884    -1.37027096    -0.05107950  0.93D-02  0.15D-01  1  1  1124.09
   2      1.67779295    -1.40559235  -274.44870023    -0.03532139    -0.00663539  0.49D-03  0.29D-02  2  2  1356.91
   3      1.71386315    -1.42094902  -274.46405690    -0.01535666    -0.00213149  0.30D-03  0.96D-03  3  3  1589.66
   4      1.73943699    -1.42999684  -274.47310472    -0.00904782    -0.00065757  0.11D-03  0.30D-03  4  4  1816.91
   5      1.75910120    -1.43559333  -274.47870121    -0.00559649    -0.00017262  0.46D-04  0.75D-04  5  5  2043.82
   6      1.76149859    -1.43541324  -274.47852112     0.00018009    -0.00003017  0.17D-04  0.90D-05  6  6  2267.44
   7      1.76302363    -1.43546435  -274.47857223    -0.00005111    -0.00001204  0.91D-05  0.25D-05  6  1  2485.35
   8      1.76459507    -1.43566366  -274.47877154    -0.00019931    -0.00000589  0.51D-05  0.91D-06  6  3  2700.16
   9      1.76550472    -1.43573666  -274.47884454    -0.00007300    -0.00000305  0.26D-05  0.46D-06  6  2  2914.41
  10      1.76573165    -1.43573123  -274.47883911     0.00000543    -0.00000131  0.11D-05  0.22D-06  6  4  3130.10
  11      1.76584125    -1.43569773  -274.47880561     0.00003351    -0.00000048  0.43D-06  0.68D-07  6  5  3346.00
  12      1.76614600    -1.43570302  -274.47881090    -0.00000529    -0.00000021  0.19D-06  0.28D-07  6  1  3562.19
  13      1.76639838    -1.43572585  -274.47883373    -0.00002283    -0.00000006  0.47D-07  0.11D-07  6  6  3778.08
  14      1.76645299    -1.43574119  -274.47884907    -0.00001534    -0.00000002  0.12D-07  0.34D-08  6  4  3994.22
  15      1.76645400    -1.43574228  -274.47885016    -0.00000109    -0.00000000  0.28D-08  0.58D-09  6  2  4209.99
  16      1.76647296    -1.43574399  -274.47885187    -0.00000171    -0.00000000  0.16D-08  0.31D-09  6  3  4424.78
  17      1.76648086    -1.43574319  -274.47885107     0.00000080    -0.00000000  0.47D-09  0.16D-09  6  5  4639.86

 Spin contamination <S**2-Sz**2-Sz>     0.00000139

 Norm of t1 vector:      0.16175433      S-energy:     0.00000003      T1 diagnostic:  0.03499109
 Norm of t2 vector:      0.86041641      P-energy:    -1.43574322
                                         Alpha-Beta:  -1.18164368
                                         Alpha-Alpha: -0.12704977
                                         Beta-Beta:   -0.12704977
 Total MP2 weak+close+distant pair     -0.065912044827


  RESULTS
  =======

  LUCCSD strong pair energy            -1.435743218176
  LMP2 close pair energy               -0.036230053778
  LMP2 weak pair energy                -0.065912044827
  LMP2 distant pair energy             -0.000959297688


  Reference energy                   -273.043107880177

  LUCCSD correlation energy            -1.538844585312
 !LUCCSD total energy                -274.581952465489

 Program statistics:

 Available memory:                      1023999971
 Available memory in lrmp2:             1021176088
 Max. memory used in lrmp2:              108431098
 Min. memory needed in lrmp2:             77742332
 Available memory in luccsd:            1010565479
 Max. memory used in luccsd:              79787458
 Min. memory needed in luccsd:            72392216



 **********************************************************************************************************************************
 DATASETS  * FILE   NREC   LENGTH (MB)   RECORD NAMES
              1      19       47.72       500      610      700      900      950      970     1000      129      960     1100   
                                          VAR    BASINP    GEOM    SYMINP    ZMAT    AOBASIS   BASIS     P2S    ABASIS      S 
                                         1400     1410     1200     1210     1080     1600     1650     1700      960(1)
                                           T        V       H0       H01     AOSYM     SMH    MOLCAS    OPER    ABASIS    

              2       4       14.68       700     1000      520     2100   
                                         GEOM     BASIS   MCVARS     RHF  

 PROGRAMS   *        TOTAL DF-LUCCSD     DF-HF       INT
 CPU TIMES  *      4883.91   4640.23    242.68      0.84
 REAL TIME  *      5376.34 SEC
 DISK USED  *        55.58 GB
 **********************************************************************************************************************************

 DF-LUCCSD/aug-cc-pVTZ energy=   -274.581952465489

       DF-LUCCSD           DF-HF
   -274.58195247   -273.04310788
 **********************************************************************************************************************************
 Molpro calculation terminated
