
 Primary working directories    : /var/tmp/pbs.368528.bp1/molpro.yMMgvzqJEF
 Secondary working directories  : /var/tmp/pbs.368528.bp1/molpro.yMMgvzqJEF
 Wavefunction directory         : /home/lb17101/molpro_test/inp/lowmem/
 Main file repository           : /home/lb17101/molpro_test/inp/lowmem/

 id        : uob

 Nodes                         nprocs
 bp1-01-02-01.data.bp.acrc.priv    1

 Using customized tuning parameters: mindgm=1; mindgv=20; mindgc=4; mindgr=1; noblas=0; minvec=7
 default implementation of scratch files=df  


 Variables initialized (934), CPU time= 0.00 sec
 geomtyp=xyz
 nosym
 noorient
 geometry={
 C       2.682553142765      -1.439438488647      -0.661046844118
 C       1.943855644586      -0.231765356275      -0.093682523204
 C       0.214003469184       0.800627472803       0.703680408037
 C      -0.272761558326      -0.082655788263       1.716016419494
 C      -0.783026666974       1.019409382396      -0.183699731572
 C      -2.437479436159       1.639341869019       0.547052656472
 C      -1.095843845065      -0.587960645040      -1.347071314975
 H       2.668871645538      -3.017723564592      -1.164885544584
 H       3.688844315079      -1.056204110642      -1.589804766081
 H       1.708153655008      -1.403899383845      -1.577207273869
 H       1.747952994639      -0.377012812560       1.281012291903
 H       2.138182319334       0.217769833242      -1.272152822352
 H       0.267994238462      -0.243965199797      -0.972520432611
 H       0.147259620911      -1.583197887363       1.448767398382
 H      -0.544480461986       0.439143127216       2.822159196983
 H      -1.852931601343       0.238259806771       1.810667160475
 H      -1.233712084174       1.383762226753      -1.491973354623
 H      -3.877201474844       1.925908017288       0.125626163703
 H      -2.976558319304       1.095695877634       1.546747540189
 H      -2.075916852998       2.840743486441       0.399549121191
 H      -1.718655188426      -0.759872452733      -2.441159919966
 H      -0.314343654904      -1.300766424846      -1.886688127806
 H      -2.333583469738      -1.375180840608      -1.110818580992
 }
 basis=vtz-f12
 df-hf
 pno-lccsd-f12,cabs_singles=1
 Commands  initialized (763), CPU time= 0.01 sec, 617 directives.
 Default parameters read. Elapsed time= 0.08 sec

 Checking input...
 Passed
1


                                         ***  PROGRAM SYSTEM MOLPRO  ***
                                       Copyright, TTI GmbH Stuttgart, 2015
                                    Version 2019.2 linked Oct 25 2019 22:50:27


 **********************************************************************************************************************************
 LABEL *                                                                                 
  64 bit serial version                                                                  DATE: 23-Sep-20          TIME: 04:01:18  
 **********************************************************************************************************************************

 SHA1:             8dbd9ae1082e4ce945b0f27595c9eb2d4aa09004
 **********************************************************************************************************************************
 SETTING GEOMTYP        =    XYZ

 Variable memory set to 1024000000 words,  buffer space 

 ZSYMEL=NOSYM

 SETTING BASIS          =    VTZ-F12


 Recomputing integrals since basis changed


 Using spherical harmonics

 Library entry C      S cc-pVTZ-F12          selected for orbital group  1
 Library entry C      P cc-pVTZ-F12          selected for orbital group  1
 Library entry C      D cc-pVTZ-F12          selected for orbital group  1
 Library entry C      F cc-pVTZ-F12          selected for orbital group  1
 Library entry H      S cc-pVTZ-F12          selected for orbital group  2
 Library entry H      P cc-pVTZ-F12          selected for orbital group  2
 Library entry H      D cc-pVTZ-F12          selected for orbital group  2


 PROGRAM * SEWARD (Integral evaluation for generally contracted gaussian basis sets)     Author: Roland Lindh, 1990

 Geometry written to block  1 of record 700


 Point group  C1  



 ATOMIC COORDINATES

 NR  ATOM    CHARGE       X              Y              Z

   1  C       6.00    5.069290754   -2.720144517   -1.249197491
   2  C       6.00    3.673354794   -0.437973049   -0.177034312
   3  C       6.00    0.404407946    1.512966651    1.329763250
   4  C       6.00   -0.515444643   -0.156196802    3.242801058
   5  C       6.00   -1.479705949    1.926404542   -0.347142182
   6  C       6.00   -4.606168569    3.097907157    1.033779696
   7  C       6.00   -2.070844742   -1.111084591   -2.545595856
   8  H       1.00    5.043436472   -5.702671057   -2.201314646
   9  H       1.00    6.970905472   -1.995936501   -3.004295599
  10  H       1.00    3.227942587   -2.652985342   -2.980489789
  11  H       1.00    3.303152438   -0.712450961    2.420762394
  12  H       1.00    4.040578988    0.411525343   -2.404020423
  13  H       1.00    0.506435714   -0.461027412   -1.837797268
  14  H       1.00    0.278280353   -2.991810408    2.737773601
  15  H       1.00   -1.028918953    0.829860240    5.333107962
  16  H       1.00   -3.501533254    0.450245781    3.421665036
  17  H       1.00   -2.331377956    2.614931630   -2.819421025
  18  H       1.00   -7.326848917    3.639438694    0.237399043
  19  H       1.00   -5.624880017    2.070565125    2.922929235
  20  H       1.00   -3.922914310    5.368227180    0.755038412
  21  H       1.00   -3.247787609   -1.435950825   -4.613123675
  22  H       1.00   -0.594023417   -2.458092295   -3.565323844
  23  H       1.00   -4.409833647   -2.598715160   -2.099142892

 Bond lengths in Bohr (Angstrom)

  1- 2  2.882096060   1- 9  2.687189080   1-10  2.528328786   2-11  2.638358511   2-12  2.411631868
       ( 1.525139555)       ( 1.421999223)       ( 1.337933975)       ( 1.396159198)       ( 1.276180626)

  3- 4  2.700360916   3- 5  2.555939727   4-15  2.367561470   5- 6  3.613050252   5- 7  3.795916735
       ( 1.428969458)       ( 1.352545056)       ( 1.252859575)       ( 1.911943855)       ( 2.008712631)

  5-17  2.703992870   6-19  2.379514792   6-20  2.387233983   7-13  2.750623152   7-21  2.401125541
       ( 1.430891405)       ( 1.259185001)       ( 1.263269821)       ( 1.455567088)       ( 1.270620917)

  7-22  2.243942101   7-23  2.807709752
       ( 1.187443022)       ( 1.485776016)

 Bond angles

  1- 2-11  110.60185353   1- 2-12   82.04758984   2- 1- 9  111.85874161   2- 1-10   83.16318716

  3- 4-15  116.22597298   3- 5- 6  116.07621213   3- 5- 7  111.42838688   3- 5-17  150.83590357

  4- 3- 5  108.28084015   5- 6-19  122.27009448   5- 6-20   90.92071704   5- 7-13   61.04910822

  5- 7-21  133.10170697   5- 7-22  129.87009688   5- 7-23  117.49141387   6- 5- 7  110.24646695

  6- 5-17   89.67563526   7- 5-17   67.98650207   9- 1-10   93.49611345  11- 2-12  165.29611886

 13- 7-21  135.46484656  13- 7-22   69.03125817  13- 7-23  149.86679319  19- 6-20  128.74334918

 21- 7-22   81.37758029  21- 7-23   69.93397644  22- 7-23  107.60617187

 NUCLEAR CHARGE:                   58
 NUMBER OF PRIMITIVE AOS:         840
 NUMBER OF SYMMETRY AOS:          761
 NUMBER OF CONTRACTIONS:          659   (  659A   )
 NUMBER OF CORE ORBITALS:           7   (    7A   )
 NUMBER OF VALENCE ORBITALS:       44   (   44A   )


 NUCLEAR REPULSION ENERGY  298.55278751


 Eigenvalues of metric

         1 0.202E-04 0.420E-04 0.478E-04 0.509E-04 0.775E-04 0.106E-03 0.119E-03 0.134E-03


 OPERATOR DM      FOR CENTER  0  COORDINATES:    0.000000    0.000000    0.000000


 **********************************************************************************************************************************
 DATASETS  * FILE   NREC   LENGTH (MB)   RECORD NAMES
              1      18       46.20       500      610      700      900      950      970     1000      129      960     1100   
                                          VAR    BASINP    GEOM    SYMINP    ZMAT    AOBASIS   BASIS     P2S    ABASIS      S 
                                         1400     1410     1200     1210     1080     1600     1650     1700   
                                           T        V       H0       H01     AOSYM     SMH    MOLCAS    OPER   

 PROGRAMS   *        TOTAL       INT
 CPU TIMES  *         0.93      0.81
 REAL TIME  *         1.70 SEC
 DISK USED  *        47.04 MB
 **********************************************************************************************************************************


 PROGRAM * RHF-SCF (CLOSED SHELL)       Authors: W. Meyer, H.-J. Werner


 NUMBER OF ELECTRONS:      29+   29-    SPACE SYMMETRY=1    SPIN SYMMETRY: Singlet 
 CONVERGENCE THRESHOLDS:    1.00E-05 (Density)    1.00E-07 (Energy)
 INTEGRAL THRESHOLDS:       1.00E-11 (Initial)    1.00E-11 (Final)
 MAX. NUMBER OF ITERATIONS:       60
 INTERPOLATION TYPE:            DIIS
 INTERPOLATION STEPS:              2 (START)      1 (STEP)
 LEVEL SHIFTS:                  0.00 (CLOSED)  0.00 (OPEN) 




 Basis set AUG-CC-PVTZ/JKFIT generated.  Number of basis functions:   1464 

 Orbital guess generated from atomic densities. Full valence occupancy:   51
 Using density fitting in orbital guess

 Coulomb and exchange fitting
 Thresholds for fitting:       THRAO_COUL= 1.0D-14    THRAO_EXCH= 1.0D-12    THRMO= 1.0D-11    THRPROD= 1.0D-11    THRASM= 1.0D-11
                               THR2HLF=    1.0D-11

 Molecular orbital dump at record        2100.2

 Initial occupancy:  29

 ITERATION   DDIFF            GRAD            ENERGY        2-EL.EN.            DIPOLE MOMENTS         DIIS   CPU(IT)  CPU(TOT)  ORB.
    1      0.000D+00      0.000D+00      -272.88383177    778.333500   -0.55433   -1.63893   -2.92830    0     12.0     26.1     start
    2      0.000D+00      0.219D-02      -272.97496875    768.969493   -0.03611    0.74023    0.30620    1     12.2     38.2     diag
    3      0.298D-02      0.178D-02      -273.04361498    774.589253   -0.39846   -0.19754   -1.02131    2     12.2     50.4     diag
    4      0.158D-02      0.424D-03      -273.05250394    773.704500   -0.40136   -0.01984   -0.88883    3     12.0     62.4     diag
    5      0.533D-03      0.187D-03      -273.05442994    773.651461   -0.45341    0.03284   -0.78813    4     12.2     74.6     diag
    6      0.249D-03      0.845D-04      -273.05529980    773.658137   -0.51304    0.06943   -0.78137    5     12.1     86.7     diag
    7      0.190D-03      0.525D-04      -273.05569278    773.619267   -0.55355    0.08138   -0.76236    6     12.2     98.9     diag
    8      0.123D-03      0.347D-04      -273.05598349    773.612071   -0.60862    0.09495   -0.75851    7     12.0    110.9     diag
    9      0.134D-03      0.220D-04      -273.05611443    773.624221   -0.63712    0.10356   -0.74616    8     12.1    123.0     diag
   10      0.106D-03      0.122D-04      -273.05615327    773.608739   -0.65455    0.10359   -0.74485    9     12.0    135.0     orth
   11      0.590D-04      0.676D-05      -273.05616473    773.607332   -0.65651    0.10275   -0.74351    9     12.2    147.2     diag
   12      0.366D-04      0.369D-05      -273.05616705    773.609996   -0.65596    0.10133   -0.74319    9     12.1    159.2     diag
   13      0.146D-04      0.182D-05      -273.05616771    773.606547   -0.65380    0.10007   -0.74367    9     12.3    171.5     diag
   14      0.854D-05      0.101D-05      -273.05616785    773.607994   -0.65295    0.09956   -0.74409    9     12.5    184.1     diag
   15      0.319D-05      0.460D-06      -273.05616789    773.607519   -0.65251    0.09932   -0.74416    9     12.5    196.6     diag
   16      0.185D-05      0.267D-06      -273.05616789    773.607714   -0.65245    0.09931   -0.74425    0     12.5    209.1     orth

 Final occupancy:  29

 !RHF STATE  1.1 Energy              -273.056167893632
 Nuclear energy                       298.55278751
 One-electron energy                 -958.41281216
 Two-electron energy                  386.80385676
 Virial quotient                       -1.01190051
 !RHF STATE  1.1 Dipole moment         -0.65245106     0.09931102    -0.74424524
 Dipole moment /Debye                  -1.65825657     0.25240691    -1.89155881

 Orbital energies:

         1.1          2.1          3.1          4.1          5.1          6.1          7.1          8.1          9.1         10.1
    -11.376416   -11.338796   -11.334573   -11.333256   -11.311785   -11.278564   -11.269116    -1.116621    -1.015763    -0.931087

        11.1         12.1         13.1         14.1         15.1         16.1         17.1         18.1         19.1         20.1
     -0.892279    -0.850274    -0.736158    -0.670854    -0.627073    -0.607389    -0.588189    -0.558897    -0.535896    -0.507077

        21.1         22.1         23.1         24.1         25.1         26.1         27.1         28.1         29.1         30.1
     -0.495211    -0.483226    -0.454800    -0.415717    -0.394601    -0.367565    -0.339737    -0.293199    -0.278429     0.012078

        31.1
      0.033436


 HOMO     29.1    -0.278429 =      -7.5764eV
 LUMO     30.1     0.012078 =       0.3287eV
 LUMO-HOMO         0.290507 =       7.9051eV


 **********************************************************************************************************************************
 DATASETS  * FILE   NREC   LENGTH (MB)   RECORD NAMES
              1      18       46.20       500      610      700      900      950      970     1000      129      960     1100   
                                          VAR    BASINP    GEOM    SYMINP    ZMAT    AOBASIS   BASIS     P2S    ABASIS      S 
                                         1400     1410     1200     1210     1080     1600     1650     1700   
                                           T        V       H0       H01     AOSYM     SMH    MOLCAS    OPER   

              2       4       13.67       700     1000      520     2100   
                                         GEOM     BASIS   MCVARS     RHF  

 PROGRAMS   *        TOTAL     DF-HF       INT
 CPU TIMES  *       210.14    209.21      0.81
 REAL TIME  *       216.04 SEC
 DISK USED  *       462.63 MB
 **********************************************************************************************************************************


 World communicator: rank 0, size 1
 Shared-memory communicator: rank 0, size 1
 Current node: rank 0, 1 node(s) in total

 Restoring occupations from record    2100.2

 Program * PNO-LCCSD-F12   Authors:   H.-J. Werner (2012), M. Schwilk, Q. Ma (2016)

 Number of core orbitals:           7
 Number of closed-shell orbitals:  22
 Number of open-shell orbitals:     0
 Number of valence orbitals:       22
 Number of external orbitals:     630

 Basis set CC-PVTZ-F12/OPTRI generated.  Number of basis functions:   1181 

 Generating union of orbital basis set VTZ-F12 and corresponding OPTRI basis

 Basis set CC-PVTZ-F12_CABS generated.   Number of basis functions:   1840 
 Basis set AUG-CC-PVTZ/MP2FIT generated. Number of basis functions:   1478 

 Calculation of CABS singles correction
 ======================================


 Molecular orbitals read from record     2100.2  Type=RHF/CANONICAL (state 1.1)
 Fock matrix read from record            2100.2  Type=RHF/TOTAL (state 1.1)
 Some Fock operators are calculated for F12-singles only.

 AO(A)-basis ORBITAL           loaded. Number of functions:     659
 RI(R)-basis CC-PVTZ-F12/OPTRI loaded. Number of functions:    1181
 DF-basis AUG-CC-PVTZ/JKFIT    loaded. Number of functions:    1464

 Screening thresholds:   THRAO=  1.00D-10  THRMO=  1.00D-09  THRPROD=  1.00D-09
                         THRSW=  1.00D-05  THROV=  1.00D-12  THRAOF12= 1.00D-08

 CPU time for Fock operators                     78.07 sec

 Construction of ABS:
 Smallest eigenvalue of S          4.23E-05  (threshold= 1.00E-08)
 Ratio eigmin/eigmax               4.10E-06  (threshold= 1.00E-09)
 Smallest eigenvalue of S kept     4.23E-05  (threshold= 4.23E-05, 0 functions deleted, 1181 kept)

 Construction of CABS:
 Smallest eigenvalue of S          1.98E-07  (threshold= 1.00E-08)
 Ratio eigmin/eigmax               1.98E-07  (threshold= 1.00E-09)
 Smallest eigenvalue of S kept     1.98E-07  (threshold= 1.98E-07, 0 functions deleted, 1181 kept)

 CPU time for CABS singles                        2.37 sec

 CABS-singles contribution of  -0.00205737 patched into reference energy.
 New reference energy        -273.05822527

 Leaving lmp2-f12 by request (CABS_SINGLES < 0) after calculation of singles.

 iclose= 0  iweak= 0  rclose= 0.00  rweak= 0.00  thrclos= 1.0D-04  thrweak= 1.0D-05  open-shell=F

 Use_GA=T  Use_PAO=T  PAO_pairdom=F  PAO_trans=T  LOCFIT= 1  LOCRI=T  EIJDIP=2  PROJECT_K=T

 Threshold for small PAO norm:    0.00D+00
 Threshold for redundancy check:  1.00D-06

 OPTIONS FOR CCSD:   method= LCCSD     icepa= -1  icepac=-1  icepaw= 2  keepcls=1  maxcls=1  maxclt=2  maxwkt=2  do_mp2w=F
                     project_k=T    project_j=ALL    idexp4_close=0

 OPTIONS FOR SINGLES IN CCSD:   isexp4=  1  isexp5= 0  isexp6= 0  project_je=T  project_s=WEAK
                                includeGE= 1  includeKEKJ= 1  includeJEKJ= 0  includeJ= 2  undress=T  project_ke=2

 Molecular orbitals read from record     2100.2  Type=RHF/CANONICAL (state 1.1)
 Orbital energies read from record       2100.2  Type=RHF/CANONICAL (state 1.1)
 Fock matrix read from record            2100.2  Type=RHF/TOTAL (state 1.1)

  Reference energy                   -273.056167893635
  CABS singles correction              -0.002057373136
  New reference energy               -273.058225266771


 Computing intrinsic bond orbitals
 =================================

 Basis set MINAO-AUTO-PP generated.      Number of basis functions:   51 

 Polarized AO type:                A = (O Ot + (1-O)(1-Ot)) P12
 Orthogonalization method:         Symmetric (Loewdin)
 Localization functional:          L = sum[A,i] <i|n_A|i>^4 -> max

 Localization group 1:  22 orbitals, occupancy  2.000
 Iterative localization: IB/PM,   15 iter; Final gradient 0.25E-08

 Summary of localized orbital composition:   [THRPRINT= 0.020]

   ORB  GRP  ORB.ENERGY      CENTERS/CHARGES
     8   1    -0.930909      C  5   1.071   C  3   0.915
     9   1    -0.825996      C  3   0.989   C  4   0.975   (other: 0.036)
    10   1    -0.767094      C  1   1.103   C  2   0.880
    11   1    -0.667847      C  6   1.105   H 19   0.844   H 16   0.027   C  4   0.020
    12   1    -0.667379      C  7   1.037   H 22   0.839   H 13   0.086   C  5   0.024
    13   1    -0.634013      C  6   1.121   H 20   0.863
    14   1    -0.633940      C  2   1.138   H 12   0.796   H  8   0.036   C  1   0.021
    15   1    -0.619107      C  4   1.146   H 15   0.836
    16   1    -0.610400      C  7   1.434   C  5   0.341   H 13   0.153   C  2   0.028   (other: 0.045)
    17   1    -0.609231      C  5   1.199   H 17   0.766   (other: 0.035)
    18   1    -0.603387      C  2   1.172   H 11   0.774   (other: 0.054)
    19   1    -0.570397      C  6   1.004   C  5   0.936   C  3   0.030   (other: 0.029)
    20   1    -0.560806      C  7   1.095   H 21   0.845   H 13   0.039   (other: 0.021)
    21   1    -0.557718      C  1   1.044   H  9   0.916   (other: 0.040)
    22   1    -0.545574      C  1   0.978   H 10   0.929   H 11   0.027   C  2   0.021   (other: 0.044)
    23   1    -0.518714      C  4   1.039   H 14   0.922   (other: 0.039)
    24   1    -0.499167      C  6   1.023   H 18   0.960
    25   1    -0.495691      C  1   1.089   H  8   0.892
    26   1    -0.488611      C  7   1.051   H 23   0.913   H 13   0.026
    27   1    -0.465506      C  2   1.025   C  3   0.461   H 13   0.373   C  6   0.035   C  5   0.029   (other: 0.078)
    28   1    -0.463744      C  4   1.037   H 16   0.897   (other: 0.066)
    29   1    -0.424811      C  3   1.663   C  5   0.230   C  4   0.033   C  7   0.021   (other: 0.054)

 Localizing core orbitals

 CPU Time for LMOs:                 81.73 sec. Elapsed time:    84.97 sec. Memory usage:     1.74 MW (max).
 CPU Time for PAOs:                  0.03 sec. Elapsed time:     0.03 sec. Memory usage:     2.20 MW (max).

 Distance criteria for pair classes:       RCLOSE= 0.0  RWEAK= 0.0  RDIST= 0.0  RVDIST=-1.0
 Connectivity criteria for pair classes:   ICLOSE=   0  IWEAK=   0  IDIST=   0  IVDIST=  -1

 Augmenting orbital domains by 2 shell(s) of neighboring atoms.  Minimum radius:     5.00
 Augmenting RI domains by 3 shell(s) of neighboring atoms.  Minimum radius:          7.00
 Augmenting DF domains by 2 shell(s) of neighboring atoms.  Minimum radius:          5.00

 Generating LMO domains. Method=COEFF  Threshold=1.00D-06

 Fitting truncated LMOs to exact LMOs

 Minimum LMO domain size:                641
 Maximum LMO domain size:                659
 Average LMO domain size:              657.4   (sparsity   0.25 %)

 CPU time for Fitlmo:                   0.01 sec.

 PAO orbital domain sizes:   196 (min),  516 (max),  283.8 (average)
 DF  orbital domain sizes:   442 (min), 1142 (max),  624.8 (average)
 RI  orbital domain sizes:   856 (min), 1781 (max), 1350.4 (average)

 CPU Time for Domains:               0.02 sec. Elapsed time:     0.03 sec. Memory usage:     0.87 MW (max).

 Number of residual matrices on current processor:       22
 Number of amplitude matrices on current processor:     253

 Fitting basis AUG-CC-PVTZ-MP2F loaded

 Threshold for block screening:     1.00D-05
 Threshold for integral screening:  1.00D-10

 CPU time for create_blocked_AO basis:                 0.03 sec, 659 functions, 30 blocks.
 CPU time for create_blocked_DF basis:                 0.10 sec, 1478 functions, 53 blocks.
 CPU time for create_blocked_RI basis:                 0.06 sec, 1840 functions, 23 blocks.

 Fitting basis center dimensions: min=   46, max=  106, average= 64.26
 Fitting basis block dimensions:  min=  12, max=  36, average= 27.89

 CPU time for project LMOs:                                    0.00 sec.
 CPU time for project PAOs:                                    0.01 sec.

 Screening PAOs with threshold      1.00D-06

 Minimum PAO vector length:              659
 Maximum PAO vector length:              659
 Average PAO vector length:            659.0  (sparsity  0.00 %)

 CPU time for cut/fit of PAO vectors:                          0.00 sec.

 CPU Time for Block_basis:           0.21 sec. Elapsed time:     0.22 sec. Memory usage:     0.97 MW (max).
 CPU Time for Orbitals(tot):        81.99 sec. Elapsed time:    85.25 sec. Memory usage:     0.97 MW (max).
 CPU Time for PAO integrals:        13.80 sec. Elapsed time:    13.86 sec. Memory usage:     6.53 MW (max).
 CPU Time for PAO integrals:         0.00 sec. Elapsed time:     0.00 sec. Memory usage:     2.94 MW (max).
 CPU Time for PAO amplitudes:        0.85 sec. Elapsed time:     0.85 sec. Memory usage:     5.68 MW (max).

 Generating OSVs using PAO(PERT) amplitudes, throsv= 1.0D-09

 Minimum OSV orbital domain size:        113
 Maximum OSV orbital domain size:        270
 Average OSV orbital domain size:      149.5

 CPU Time for OSV_generate:          0.31 sec. Elapsed time:     0.32 sec. Memory usage:     4.73 MW (max).

 Computing distant pair energies using multipole approximation up to order   3

 CPU time for computing multipole integrals (PAO/LMO):         1.32 sec
 CPU time for transforming integrals to OSV domains:           0.01 sec
 CPU time for distant pair energies:                           1.76 sec

 Distant pairs selected using the multipole order 3,  thrdist=1.0D-06  thrvdist=1.0D-07

 Semi-canonical distant pair energies, multipole-orders 1-3    0.00000000  0.00000000  0.00000000


 CPU Time for osv_mltp:              1.76 sec. Elapsed time:     1.76 sec. Memory usage:     1.96 MW (max).

 Number of strong pairs:                 253
 Number of close pairs:                    0
 Number of weak pairs:                     0
 Number of distant pairs:                  0  (treated by iterative multipole approximation, thrdist= 1.0D-06)
 Number of very distant pairs:             0  (treated by non-iterative multipole approximation, thrvdist= 1.0D-07)
 Total number of pairs in LMP2:          253

 Number of pairs per orbital (min, max, average):

 Strong pairs:              22    22    22.0
 Close pairs:                0     0     0.0
 Weak  pairs:                0     0     0.0
 Distant  pairs:             0     0     0.0
 Very distant pairs:         0     0     0.0

 CPU Time for Distribute_pairs:      0.00 sec. Elapsed time:     0.00 sec. Memory usage:     1.96 MW (max).

 Number of residual matrices on current processor:      253
 Number of amplitude matrices on current processor:     253
 F12 pair list with SKIPF=3, 253 pairs.

 Minimum OSV pair domain size:           113
 Maximum OSV pair domain size:           477
 Average OSV pair domain size:         286.1
 Total number of OSVs:                  3290
 Total number of OSV amplitudes:    21793576

 CPU Time for OSV_pairdom:           8.63 sec. Elapsed time:     8.68 sec. Memory usage:    23.60 MW (max).
 CPU Time for OSV integrals:        26.56 sec. Elapsed time:    27.02 sec. Memory usage:    51.24 MW (max).
 CPU Time for OSV_smatrix:           0.28 sec. Elapsed time:     0.30 sec. Memory usage:    44.99 MW (max).

 nosvmx= 477  nosvt= 3290  lens=         0  lenr=  21383894  lent=  21793576  leng=  21793576  lenw=  21643712  lenosv=    227529

 Generating PNOs using OSV(SC) amplitudes, THRPNO_EN=0.9970,  THRPNO_OCC=1.0D-08,  KEEP_DIAG=T  THRPNO_DIAG=0.0D+00

 Generating PNOs for LCCSD with thresholds: THREN_CC:  0.99000, THRPNO_CC:1.0D-07

                                                PNO-LMP2     PNO_LCCSD
 Minimum PNO domain size:                            68            33
 Maximum PNO domain size:                           180           103
 Average PNO domain size:                         111.3          66.2
 Total number of PNOs:                            28166         16753
 Total number of PNO amplitudes:                3234412
 Local number of PNO amplitudes:                3234412
 Length of local PNO residual:                  3234412
 Length of local W-matrix:                      8269808

 Semi-canonical OSV correlation energy:     -1.44353564
 Semi-canonical PNO correlation energies:   -1.44305920   -1.44074518

 Semi-canonical domain correction:          -0.00047645   -0.00279046

 CPU Time for PNO_generate:          6.22 sec. Elapsed time:     6.28 sec. Memory usage:    49.62 MW (max).

 Local length of PNO overlap matrix for PNO-LMP2:   63845872  Number of blocks:    5082  number of pairs   253

 GA space for pno_smat:             63.85 MW (tot),             63.85 MW (min),             63.85 MW (max), using processor specific storage

 CPU Time for READ_OSV_SBUF:         0.01 sec. Elapsed time:     0.01 sec. Memory usage:    19.51 MW (max).
 CPU Time for PNO_SMAT:              4.23 sec. Elapsed time:     4.48 sec. Memory usage:    19.47 MW (max).

 Denominator shift:          0.2000

 ITER.      SQ.NORM     CORR.ENERGY   TOTAL ENERGY   ENERGY CHANGE     VAR    DIIS
   1      0.59046342    -1.47128324  -274.52950851    -1.47128324  0.78D-02   1  1
   2      0.62567171    -1.49277523  -274.55100049    -0.02149198  0.50D-03   2  2
   3      0.65606794    -1.49419401  -274.55241928    -0.00141878  0.24D-04   3  3
   4      0.65933481    -1.49425337  -274.55247864    -0.00005936  0.18D-05   4  4
   5      0.65911710    -1.49425801  -274.55248327    -0.00000464  0.11D-06   5  5
   6      0.65903823    -1.49425828  -274.55248355    -0.00000027  0.79D-08   6  6

                                            PNO-LMP2        PNO-LMP2_CORR
  PNO-LMP2 correlation energy          -1.494258278374    -1.494734725492
 !PNO-LMP2 total energy              -274.552483545145  -274.552959992263

 CPU Time for PNO-LMP2:             10.27 sec. Elapsed time:    11.06 sec. Memory usage:    23.31 MW (max).

 Computing the F12/3*A(LOC,FIX) energy correction
 ================================================
 Options for MP2-F12: THRF12=0.0E+00  THRVAL=0.1E-03  N_RI_BATCH=0
 Geminal basis:    OPTFULL  GEM_TYPE=SLATER  BETA=1.0  NGEM=6

 Optimizing Gaussian exponents for each gem_beta

 Geminal optimization for beta= 1.0000
 Weight function:   m=0, omega= 1.4646

 Augmented Hessian optimization of geminal fit. Trust ratio= 0.40000
 Convergence reached after   2 iterations. Final gradient= 8.53D-16, Step= 4.26D-06, Delta= 1.28D-09

 Alpha:                 0.19532     0.81920     2.85917     9.50073    35.69989   197.79328
 Coeff:                 0.27070     0.30552     0.18297     0.10986     0.06810     0.04224

 Screened 253 pairs with threshold 0.0E+00, 253 pairs actually used.

  F12(PNO) correction                  -0.104017182074
  PNO-LMP2-F12(PNO) corr. energy       -1.598275460448
 !PNO-LMP2-F12(PNO) total energy     -274.656500727219

 CPU Time for F12_energy:          657.11 sec. Elapsed time:   660.70 sec. Memory usage:    49.81 MW (max).

 PNO-LMP2-F12 energy contributions
 =================================
                            OSV-LMP2(SC)     PNO-LMP2     PNO-SCS-LMP2   F12 contrib.  PNO-LMP2-F12  PNO-SCS-LMP2-F12  %(PNO/OSV)  AVDOM(PNO)
 Strong pair energy:        -1.44353564    -1.49425828    -1.49262639    -0.10401718    -1.59827546    -1.61188568       103.51      111.3
 Close pair energy:          0.00000000     0.00000000     0.00000000     0.00000000     0.00000000     0.00000000         0.00        0.0
 Weak pair energy :          0.00000000     0.00000000     0.00000000     0.00000000     0.00000000     0.00000000         0.00        0.0
 Distant pair energy:        0.00000000     0.00000000     0.00000000     0.00000000     0.00000000     0.00000000         0.00        0.0
 Total correl. energy:      -1.44353564    -1.49425828    -1.49262639    -0.10401718    -1.59827546    -1.61188568       103.51      111.3

 GA space for pno_smat:             22.33 MW (tot),             22.33 MW (min),             22.33 MW (max), using processor specific storage

 CPU Time for READ_OSV_SBUF:         0.09 sec. Elapsed time:     0.11 sec. Memory usage:    11.12 MW (max).
 CPU Time for PNO_SMAT:              2.68 sec. Elapsed time:     2.72 sec. Memory usage:    11.07 MW (max).

 Denominator shift:          0.2000

 ITER.      SQ.NORM     CORR.ENERGY   TOTAL ENERGY   ENERGY CHANGE     VAR    DIIS
   1      0.65838802    -1.49056475  -274.54879001    -1.49056475  0.31D-04   1  1
   2      0.65746649    -1.49080627  -274.54903154    -0.00024152  0.53D-06   2  2
   3      0.65681987    -1.49080836  -274.54903363    -0.00000209  0.21D-07   3  3
   4      0.65671064    -1.49080843  -274.54903370    -0.00000007  0.98D-09   4  4

 LMP2 results with LCCSD domains:
 ================================
                                            PNO-LMP2        PNO-LMP2_CORR
  PNO-LMP2 correlation energy          -1.490808428749    -1.494734725492
  PNO-LMP2 total energy              -274.549033695520  -274.552959992263
  F12(PNO) correction                  -0.107004989870
  PNO-LMP2-F12 correlation energy      -1.597813418619
  PNO-LMP2-F12 total energy          -274.656038685390

  PNO-LMP2-F12 domain correction       -0.000462041829

 CPU Time for PNO-LMP2(tot):       734.56 sec. Elapsed time:   740.05 sec. Memory usage:    61.32 MW (max).

 Energy thresholds for pair classes:  THRCLOSE=1.00D-04  THRWEAK= 1.00D-05  THRDISTC=0.00D+00

 Strong and close pairs optimized in LCCSD, close pair residuals are approximated (keepcls=1).

 Number of optimized pairs:         253
 Number of strong pairs:            235
 Number of close pairs:              18
 Number of weak pairs:                0
 Total number of pairs:             253

 Length of pair-specific S-blocks:   529.24 MW,  length of unique S-blocks   139.76 MW

 CPU Time for LCC_opdom:             0.16 sec. Elapsed time:     0.16 sec. Memory usage:     1.56 MW (max).
 CPU Time for LCC_float:             0.01 sec. Elapsed time:     0.02 sec. Memory usage:     0.97 MW (max).

 CPU Time for LCC_opdom:             0.14 sec. Elapsed time:     0.13 sec. Memory usage:     1.56 MW (max).
 CPU Time for LCC_load:              0.02 sec. Elapsed time:     0.03 sec. Memory usage:     8.59 MW (max).

 Estimated GA usage of PNO-LCCSD-F12 integrals:                  0.00 MW
 Maximum GA usage after allocating GAs for CCSD integrals:       0.00 MW

 CPU Time for CCSD integrals:     1928.08 sec. Elapsed time:  2002.26 sec. Memory usage:    59.25 MW (max).

 GA space for pno_smat:            139.76 MW (tot),            139.76 MW (min),            139.76 MW (max), using node specific storage
 CPU Time for OSV_SMAT_LCC:          0.29 sec. Elapsed time:     0.31 sec. Memory usage:    66.19 MW (max).
 CPU Time for READ_OSV_SBUF:         0.00 sec. Elapsed time:     0.00 sec. Memory usage:    66.19 MW (max).
 CPU Time for PNO_SMAT_LCC:         15.53 sec. Elapsed time:    16.28 sec. Memory usage:    60.59 MW (max).

 Current GA usage:                   0.00 MW.  Maximum GA usage up to this point:            0.00 MW

 Solving PNO-LCCSD equations

 K-Operators in non-linear terms are projected

 Close pairs are approximated (keepcls=1, max_ijkl=0, skip_ijkl=0, maxik=0)

 Weak pairs pairs are treated by CEPA(2)

 Denominator shifts:     0.15 (singles),  0.20 (doubles)

 ITER.      SQ.NORM     CORR.ENERGY   TOTAL ENERGY   ENERGY CHANGE     VAR        VART1     DIIS     TIME
    1     0.67378717    -1.53976675  -274.59799202     0.05804667    0.12D-01    0.17D-01   1  1   102.91
    2     0.65164228    -1.60730527  -274.66553053    -0.06753851    0.28D-02    0.48D-03   2  2   204.78
    3     0.73726141    -1.61623559  -274.67446085    -0.00893032    0.40D-03    0.33D-03   3  3   307.93
    4     0.77228181    -1.61871165  -274.67693691    -0.00247606    0.73D-04    0.55D-04   4  4   409.52
    5     0.78289372    -1.61926519  -274.67749045    -0.00055354    0.13D-04    0.31D-04   5  5   513.01
    6     0.78663048    -1.61945710  -274.67768237    -0.00019191    0.30D-05    0.13D-04   6  6   614.21
    7     0.78917648    -1.61957423  -274.67779950    -0.00011713    0.11D-05    0.58D-05   7  7   714.07
    8     0.79056910    -1.61963921  -274.67786448    -0.00006498    0.41D-06    0.21D-05   8  8   817.93
    9     0.79136314    -1.61968175  -274.67790701    -0.00004253    0.16D-06    0.47D-06   1  8   919.65
   10     0.79167745    -1.61970436  -274.67792962    -0.00002261    0.45D-07    0.13D-06   2  8  1021.25
   11     0.79181299    -1.61970400  -274.67792927     0.00000036    0.11D-07    0.33D-07   3  8  1121.28
   12     0.79186969    -1.61970842  -274.67793368    -0.00000442    0.32D-08    0.99D-08   4  8  1221.81
   13     0.79187967    -1.61970569  -274.67793095     0.00000273    0.89D-09    0.30D-08   5  8  1321.15
   14     0.79189676    -1.61970650  -274.67793177    -0.00000081    0.30D-09    0.95D-09   6  8  1422.39

 Convergence reached

  T1 diagnostic   0.02132
  D1 diagnostic   0.08655
   
  Reference energy                   -273.056167893635
  CABS singles correction              -0.002057373136
  New reference energy               -273.058225266771

  Correlation contributions without domain correction:

  PNO-LCCSD-F12 singles energy          0.001479449383
  PNO-LCCSD-F12a strong pair energy    -1.620395865963
  PNO-LCCSD-F12b strong pair energy    -1.596895925169
  PNO-LCCSD-F12 close pair energy      -0.000790085572
  PNO-CEPA(2)-F12 weak pair energy      0.000000000000
  PNO-SCS-LMP2 distant pair energy      0.000000000000

  Results including domain correction:

  PNO-LMP2-F12 correction              -0.000462041829
  PNO-LCCSD-F12a correlation energy    -1.620168543980
  PNO-LCCSD-F12b correlation energy    -1.596668603186

 !PNO-LCCSD-F12a total energy        -274.678393810751
 !PNO-LCCSD-F12b total energy        -274.654893869957

 Maximum stack memory usage in PNO-LCCSD iterations: 67.84 MW
 Maximum GA memory usage up to this point: .00 MW
 Maximum local disk usage in MB: 13400.81 (current)   13400.81 (maximum)   13400.81 (average)
 Maximum local disk usage per node: 13400.81 MB

 CPU Time for PNO_LCCSD(it):      1231.76 sec. Elapsed time:  1422.44 sec. Memory usage:    60.50 MW (max).

 GA_Put processed 1545.64 MW globally, average elapsed time per process: 9.47 sec
 GA_Get processed 211262.43 MW globally, average elapsed time per process: 253.20 sec

 REMARK: Memory usage printed may not be correct.
 CPU Time for LCCSD(tot):         3176.00 sec. Elapsed time:  3443.91 sec. Memory usage:    66.19 MW (max).

 Direct file usage                 694.16 MB (local),          694.16 MB (max),            694.16 MB (tot)

 Max. memory usage (overall):       66.19 MW (local),           66.19 MW (max),             66.19 MW (tot)
 Max. GA usage (overall):            0.00 MW (local),            0.00 MW (max),              0.00 MW (tot)
 Max. memory+GA usage:              66.19 MW (local),           66.19 MW (max),             66.19 MW (tot)


 **********************************************************************************************************************************
 DATASETS  * FILE   NREC   LENGTH (MB)   RECORD NAMES
              1      19       46.38       500      610      700      900      950      970     1000      129      960     1100   
                                          VAR    BASINP    GEOM    SYMINP    ZMAT    AOBASIS   BASIS     P2S    ABASIS      S 
                                         1400     1410     1200     1210     1080     1600     1650     1700      960(1)
                                           T        V       H0       H01     AOSYM     SMH    MOLCAS    OPER    ABASIS    

              2       5       20.63       700     1000      520     2100     7360   
                                         GEOM     BASIS   MCVARS     RHF    F12ABS    

 PROGRAMS   *        TOTAL LCCSD-F12     DF-HF       INT
 CPU TIMES  *      4202.76   3992.58    209.21      0.81
 REAL TIME  *      4485.35 SEC
 DISK USED  *         2.30 GB
 **********************************************************************************************************************************

 PNO-LCCSD-F12/cc-pVTZ-F12 energy=   -274.654893869957

   PNO-LCCSD-F12           DF-HF
   -274.67839381   -273.05616789
 **********************************************************************************************************************************
 Molpro calculation terminated
