
 Primary working directories    : /var/tmp/pbs.368516.bp1/molpro.JMvE6myVii
 Secondary working directories  : /var/tmp/pbs.368516.bp1/molpro.JMvE6myVii
 Wavefunction directory         : /home/lb17101/molpro_test/inp/lowmem/
 Main file repository           : /home/lb17101/molpro_test/inp/lowmem/

 id        : uob

 Nodes                         nprocs
 bp1-01-03-02.data.bp.acrc.priv    1

 Using customized tuning parameters: mindgm=1; mindgv=20; mindgc=4; mindgr=1; noblas=0; minvec=7
 default implementation of scratch files=df  


 Variables initialized (934), CPU time= 0.01 sec
 geomtyp=xyz
 nosym
 noorient
 geometry={
 C       2.682553142765      -1.439438488647      -0.661046844118
 C       1.943855644586      -0.231765356275      -0.093682523204
 C       0.214003469184       0.800627472803       0.703680408037
 C      -0.272761558326      -0.082655788263       1.716016419494
 C      -0.783026666974       1.019409382396      -0.183699731572
 C      -2.437479436159       1.639341869019       0.547052656472
 C      -1.095843845065      -0.587960645040      -1.347071314975
 H       2.668871645538      -3.017723564592      -1.164885544584
 H       3.688844315079      -1.056204110642      -1.589804766081
 H       1.708153655008      -1.403899383845      -1.577207273869
 H       1.747952994639      -0.377012812560       1.281012291903
 H       2.138182319334       0.217769833242      -1.272152822352
 H       0.267994238462      -0.243965199797      -0.972520432611
 H       0.147259620911      -1.583197887363       1.448767398382
 H      -0.544480461986       0.439143127216       2.822159196983
 H      -1.852931601343       0.238259806771       1.810667160475
 H      -1.233712084174       1.383762226753      -1.491973354623
 H      -3.877201474844       1.925908017288       0.125626163703
 H      -2.976558319304       1.095695877634       1.546747540189
 H      -2.075916852998       2.840743486441       0.399549121191
 H      -1.718655188426      -0.759872452733      -2.441159919966
 H      -0.314343654904      -1.300766424846      -1.886688127806
 H      -2.333583469738      -1.375180840608      -1.110818580992
 }
 basis=avtz
 local,thrbp=0.985
 df-hf
 df-ldcsd
 Commands  initialized (763), CPU time= 0.01 sec, 617 directives.
 Default parameters read. Elapsed time= 0.09 sec

 Checking input...
 Passed
1


                                         ***  PROGRAM SYSTEM MOLPRO  ***
                                       Copyright, TTI GmbH Stuttgart, 2015
                                    Version 2019.2 linked Oct 25 2019 22:50:27


 **********************************************************************************************************************************
 LABEL *                                                                                 
  64 bit serial version                                                                  DATE: 23-Sep-20          TIME: 03:53:12  
 **********************************************************************************************************************************

 SHA1:             8dbd9ae1082e4ce945b0f27595c9eb2d4aa09004
 **********************************************************************************************************************************
 SETTING GEOMTYP        =    XYZ

 Variable memory set to 1024000000 words,  buffer space 

 ZSYMEL=NOSYM

 SETTING BASIS          =    AVTZ


 Recomputing integrals since basis changed


 Using spherical harmonics

 Library entry C      S aug-cc-pVTZ          selected for orbital group  1
 Library entry C      P aug-cc-pVTZ          selected for orbital group  1
 Library entry C      D aug-cc-pVTZ          selected for orbital group  1
 Library entry C      F aug-cc-pVTZ          selected for orbital group  1
 Library entry H      S aug-cc-pVTZ          selected for orbital group  2
 Library entry H      P aug-cc-pVTZ          selected for orbital group  2
 Library entry H      D aug-cc-pVTZ          selected for orbital group  2


 PROGRAM * SEWARD (Integral evaluation for generally contracted gaussian basis sets)     Author: Roland Lindh, 1990

 Geometry written to block  1 of record 700


 Point group  C1  



 ATOMIC COORDINATES

 NR  ATOM    CHARGE       X              Y              Z

   1  C       6.00    5.069290754   -2.720144517   -1.249197491
   2  C       6.00    3.673354794   -0.437973049   -0.177034312
   3  C       6.00    0.404407946    1.512966651    1.329763250
   4  C       6.00   -0.515444643   -0.156196802    3.242801058
   5  C       6.00   -1.479705949    1.926404542   -0.347142182
   6  C       6.00   -4.606168569    3.097907157    1.033779696
   7  C       6.00   -2.070844742   -1.111084591   -2.545595856
   8  H       1.00    5.043436472   -5.702671057   -2.201314646
   9  H       1.00    6.970905472   -1.995936501   -3.004295599
  10  H       1.00    3.227942587   -2.652985342   -2.980489789
  11  H       1.00    3.303152438   -0.712450961    2.420762394
  12  H       1.00    4.040578988    0.411525343   -2.404020423
  13  H       1.00    0.506435714   -0.461027412   -1.837797268
  14  H       1.00    0.278280353   -2.991810408    2.737773601
  15  H       1.00   -1.028918953    0.829860240    5.333107962
  16  H       1.00   -3.501533254    0.450245781    3.421665036
  17  H       1.00   -2.331377956    2.614931630   -2.819421025
  18  H       1.00   -7.326848917    3.639438694    0.237399043
  19  H       1.00   -5.624880017    2.070565125    2.922929235
  20  H       1.00   -3.922914310    5.368227180    0.755038412
  21  H       1.00   -3.247787609   -1.435950825   -4.613123675
  22  H       1.00   -0.594023417   -2.458092295   -3.565323844
  23  H       1.00   -4.409833647   -2.598715160   -2.099142892

 Bond lengths in Bohr (Angstrom)

  1- 2  2.882096060   1- 9  2.687189080   1-10  2.528328786   2-11  2.638358511   2-12  2.411631868
       ( 1.525139555)       ( 1.421999223)       ( 1.337933975)       ( 1.396159198)       ( 1.276180626)

  3- 4  2.700360916   3- 5  2.555939727   4-15  2.367561470   5- 6  3.613050252   5- 7  3.795916735
       ( 1.428969458)       ( 1.352545056)       ( 1.252859575)       ( 1.911943855)       ( 2.008712631)

  5-17  2.703992870   6-19  2.379514792   6-20  2.387233983   7-13  2.750623152   7-21  2.401125541
       ( 1.430891405)       ( 1.259185001)       ( 1.263269821)       ( 1.455567088)       ( 1.270620917)

  7-22  2.243942101   7-23  2.807709752
       ( 1.187443022)       ( 1.485776016)

 Bond angles

  1- 2-11  110.60185353   1- 2-12   82.04758984   2- 1- 9  111.85874161   2- 1-10   83.16318716

  3- 4-15  116.22597298   3- 5- 6  116.07621213   3- 5- 7  111.42838688   3- 5-17  150.83590357

  4- 3- 5  108.28084015   5- 6-19  122.27009448   5- 6-20   90.92071704   5- 7-13   61.04910822

  5- 7-21  133.10170697   5- 7-22  129.87009688   5- 7-23  117.49141387   6- 5- 7  110.24646695

  6- 5-17   89.67563526   7- 5-17   67.98650207   9- 1-10   93.49611345  11- 2-12  165.29611886

 13- 7-21  135.46484656  13- 7-22   69.03125817  13- 7-23  149.86679319  19- 6-20  128.74334918

 21- 7-22   81.37758029  21- 7-23   69.93397644  22- 7-23  107.60617187

 NUCLEAR CHARGE:                   58
 NUMBER OF PRIMITIVE AOS:         901
 NUMBER OF SYMMETRY AOS:          806
 NUMBER OF CONTRACTIONS:          690   (  690A   )
 NUMBER OF CORE ORBITALS:           7   (    7A   )
 NUMBER OF VALENCE ORBITALS:       44   (   44A   )


 NUCLEAR REPULSION ENERGY  298.55278751


 Eigenvalues of metric

         1 0.418E-05 0.508E-05 0.519E-05 0.759E-05 0.101E-04 0.111E-04 0.121E-04 0.141E-04


 OPERATOR DM      FOR CENTER  0  COORDINATES:    0.000000    0.000000    0.000000


 **********************************************************************************************************************************
 DATASETS  * FILE   NREC   LENGTH (MB)   RECORD NAMES
              1      18       47.71       500      610      700      900      950      970     1000      129      960     1100   
                                          VAR    BASINP    GEOM    SYMINP    ZMAT    AOBASIS   BASIS     P2S    ABASIS      S 
                                         1400     1410     1200     1210     1080     1600     1650     1700   
                                           T        V       H0       H01     AOSYM     SMH    MOLCAS    OPER   

 PROGRAMS   *        TOTAL       INT
 CPU TIMES  *         0.93      0.82
 REAL TIME  *         2.22 SEC
 DISK USED  *        48.55 MB
 **********************************************************************************************************************************


 PROGRAM * RHF-SCF (CLOSED SHELL)       Authors: W. Meyer, H.-J. Werner


 NUMBER OF ELECTRONS:      29+   29-    SPACE SYMMETRY=1    SPIN SYMMETRY: Singlet 
 CONVERGENCE THRESHOLDS:    1.00E-05 (Density)    1.00E-07 (Energy)
 INTEGRAL THRESHOLDS:       1.00E-12 (Initial)    1.00E-12 (Final)
 MAX. NUMBER OF ITERATIONS:       60
 INTERPOLATION TYPE:            DIIS
 INTERPOLATION STEPS:              2 (START)      1 (STEP)
 LEVEL SHIFTS:                  0.00 (CLOSED)  0.00 (OPEN) 




 Basis set AUG-CC-PVTZ/JKFIT generated.  Number of basis functions:   1464 

 Orbital guess generated from atomic densities. Full valence occupancy:   51
 Using density fitting in orbital guess

 Coulomb and exchange fitting
 Thresholds for fitting:       THRAO_COUL= 1.0D-15    THRAO_EXCH= 1.0D-13    THRMO= 1.0D-12    THRPROD= 1.0D-12    THRASM= 1.0D-12
                               THR2HLF=    1.0D-12

 Molecular orbital dump at record        2100.2

 Initial occupancy:  29

 ITERATION   DDIFF            GRAD            ENERGY        2-EL.EN.            DIPOLE MOMENTS         DIIS   CPU(IT)  CPU(TOT)  ORB.
    1      0.000D+00      0.000D+00      -272.87267668    778.146323   -0.54933   -1.61897   -2.91738    0     14.3     30.6     start
    2      0.000D+00      0.211D-02      -272.96386001    769.062518   -0.04734    0.73063    0.29843    1     14.2     44.8     diag
    3      0.310D-02      0.171D-02      -273.03066748    774.538437   -0.39874   -0.19413   -1.01807    2     14.2     58.9     diag
    4      0.158D-02      0.411D-03      -273.03949995    773.651173   -0.40199   -0.01762   -0.88641    3     14.1     73.0     diag
    5      0.621D-03      0.180D-03      -273.04140188    773.607213   -0.45426    0.03389   -0.78572    4     14.2     87.2     diag
    6      0.276D-03      0.813D-04      -273.04225477    773.608104   -0.51255    0.07012   -0.77936    5     14.2    101.4     diag
    7      0.206D-03      0.505D-04      -273.04264087    773.573071   -0.55291    0.08159   -0.76076    6     14.2    115.5     diag
    8      0.134D-03      0.334D-04      -273.04292694    773.563105   -0.60709    0.09507   -0.75680    7     14.2    129.7     diag
    9      0.146D-03      0.211D-04      -273.04305580    773.576255   -0.63551    0.10371   -0.74445    8     14.2    143.9     diag
   10      0.115D-03      0.117D-04      -273.04309387    773.560706   -0.65269    0.10375   -0.74311    9     14.2    158.1     orth
   11      0.653D-04      0.641D-05      -273.04310482    773.559184   -0.65439    0.10284   -0.74190    9     14.1    172.2     diag
   12      0.399D-04      0.354D-05      -273.04310705    773.561989   -0.65393    0.10147   -0.74160    9     14.1    186.4     diag
   13      0.157D-04      0.175D-05      -273.04310771    773.558552   -0.65177    0.10021   -0.74206    9     14.2    200.6     diag
   14      0.950D-05      0.967D-06      -273.04310784    773.560042   -0.65095    0.09970   -0.74249    9     14.1    214.7     diag
   15      0.345D-05      0.442D-06      -273.04310788    773.559529   -0.65050    0.09947   -0.74255    9     13.9    228.6     diag
   16      0.198D-05      0.252D-06      -273.04310788    773.559765   -0.65045    0.09946   -0.74264    0     14.0    242.6     orth

 Final occupancy:  29

 !RHF STATE  1.1 Energy              -273.043107880177
 Nuclear energy                       298.55278751
 One-electron energy                 -958.37577797
 Two-electron energy                  386.77988257
 Virial quotient                       -1.01225393
 !RHF STATE  1.1 Dipole moment         -0.65045026     0.09945654    -0.74264371
 Dipole moment /Debye                  -1.65317136     0.25277675    -1.88748841

 Orbital energies:

         1.1          2.1          3.1          4.1          5.1          6.1          7.1          8.1          9.1         10.1
    -11.377270   -11.339709   -11.335623   -11.334359   -11.312803   -11.279610   -11.270173    -1.116881    -1.015994    -0.931197

        11.1         12.1         13.1         14.1         15.1         16.1         17.1         18.1         19.1         20.1
     -0.892368    -0.850359    -0.736259    -0.670806    -0.626958    -0.607285    -0.588043    -0.558742    -0.535744    -0.506925

        21.1         22.1         23.1         24.1         25.1         26.1         27.1         28.1         29.1         30.1
     -0.495074    -0.483050    -0.454633    -0.415524    -0.394428    -0.367405    -0.339534    -0.293014    -0.278237     0.009839

        31.1
      0.023280


 HOMO     29.1    -0.278237 =      -7.5712eV
 LUMO     30.1     0.009839 =       0.2677eV
 LUMO-HOMO         0.288076 =       7.8389eV


 **********************************************************************************************************************************
 DATASETS  * FILE   NREC   LENGTH (MB)   RECORD NAMES
              1      18       47.71       500      610      700      900      950      970     1000      129      960     1100   
                                          VAR    BASINP    GEOM    SYMINP    ZMAT    AOBASIS   BASIS     P2S    ABASIS      S 
                                         1400     1410     1200     1210     1080     1600     1650     1700   
                                           T        V       H0       H01     AOSYM     SMH    MOLCAS    OPER   

              2       4       14.68       700     1000      520     2100   
                                         GEOM     BASIS   MCVARS     RHF  

 PROGRAMS   *        TOTAL     DF-HF       INT
 CPU TIMES  *       243.63    242.70      0.82
 REAL TIME  *       253.60 SEC
 DISK USED  *       483.25 MB
 **********************************************************************************************************************************


 Input parameters for LOCAL:

 LOCAL  =   -1.000000
 THRLOC =   -1.000000

 PROGRAM * CCSD (Closed-shell coupled cluster)     Authors: C. Hampel, H.-J. Werner, 1991, M. Deegan, P.J. Knowles, 1992

                    Density fitting coupled cluster methods (ITF), W. Gyorffy, 2015

                              Local implementation by C. Hampel and H.-J. Werner, 1996
                                    M. Schuetz, G. Hetzer, and H.-J. Werner, 1999
                              Distinguishable Cluster modification by D. Kats, 2013

 Setting use_dist= 1

 Basis set AUG-CC-PVTZ/MP2FIT generated. Number of basis functions:   1478 

 Convergence thresholds:  THRVAR = 1.00D-08  THRDEN = 1.00D-06

 Number of core orbitals:           7 (   7 )
 Number of closed-shell orbitals:  22 (  22 )
 Number of external orbitals:     661 ( 661 )

 Molecular orbitals read from record     2100.2  Type=RHF/CANONICAL (state 1.1)

 Options for lccsd:

   local=       4
   iopdom=      5
   isdom=       2
   i3ext=       3
   i4ext=       1

 Using operators K(Cij)  

 Local correlation treatment
 ===========================

 LOCAL=4  IBASO=0  NONORM=0  IDLCOR=2  KEEPCORE=0  SKIPD=3  LOCSNG= 0  LOCMUL=0  CANBLK=1  SHELLPERM=F

 Thresholds:

 THRLOC=  1.00D-06 (Smallest allowed eigenvalue in domain redundancy check)
 THRGAP=  1.00D-06 (Minimum eigenvalue gap in domain redundancy check)
 THRLOCT= 1.00D-06 (Smallest allowed eigenvalue in domain redundancy check of triples)
 THRGAPT= 1.00D-06 (Minimum eigenvalue gap in domain redundancy check of triples)
 THRORB=  1.00D-06 (Norm of projected orbitals)
 THRMP2=  1.00D-08 (Neglect of small Fock matrix elements)

 Orbital domain selection criteria:

 CHGFRAC=  0.985   CHGMIN=   0.010   CHGMINH=  0.030   CHGMAX=  0.500   CHGMIN_PAIRS=  0.200    MERGEDOM=0   CANBLK=1

 Weak and distant pair selection criteria:

 RCLOSE= 1.000   RWEAK= 3.000   RDIST= 8.000   RVDIST=15.000   KEEPCLS=0   KEEPCLS_3EXT=0   MP4CLS=0

 Options for approximating pair-single interactions:   JEDOM= 0   RMAX3X= 0.000   SKIPGE=0


 Pipek-Mezey localisation finished (npass= 29  nrot=   5240  Thresh=  0.10D-08  CPU=   0.02 sec)

 Ordering localized MOs according to charge centroids

 Generating projected atomic orbitals

 Deleting projected core orbital    1.1 (C 1s)    Norm=  0.10D-02
 Deleting projected core orbital   47.1 (C 1s)    Norm=  0.93D-03
 Deleting projected core orbital   93.1 (C 1s)    Norm=  0.19D-02
 Deleting projected core orbital  139.1 (C 1s)    Norm=  0.97D-03
 Deleting projected core orbital  185.1 (C 1s)    Norm=  0.11D-02
 Deleting projected core orbital  231.1 (C 1s)    Norm=  0.90D-03
 Deleting projected core orbital  277.1 (C 1s)    Norm=  0.13D-02

 Ranking of atoms according to Loewdin charges

 Orbital domains

   Orb.   Atom     Charge      Crit.
   8.1    6 C       0.87       0.000
         18 H       0.71       0.996
   9.1    6 C       0.86       0.000
         19 H       0.65       0.982
         16 H       0.18       0.990
  10.1    6 C       0.92       0.000
         20 H       0.71       0.996
  11.1    7 C       0.85       0.000
         23 H       0.65       0.992
  12.1    6 C       0.71       0.000
          5 C       0.68       0.988
  13.1    7 C       0.89       0.000
         21 H       0.60       0.993
  14.1    4 C       0.77       0.000
         16 H       0.53       0.983
         15 H       0.18       0.985
          3 C       0.17       0.990
  15.1    5 C       0.86       0.000
         17 H       0.61       0.980
          7 C       0.14       0.991
  16.1    7 C       0.72       0.928
          5 C       0.37       0.978
         13 H       0.27       0.990
  17.1    7 C       0.84       0.000
         22 H       0.58       0.983
         13 H       0.21       0.988
  18.1    4 C       0.90       0.000
         15 H       0.69       0.991
  19.1    3 C       0.81       0.000
          5 C       0.79       0.987
  20.1    3 C       0.81       0.000
          4 C       0.73       0.989
  21.1    4 C       0.82       0.000
         14 H       0.68       0.990
  22.1    3 C       1.03       0.954
          5 C       0.38       0.981
          4 C       0.26       0.989
  23.1    2 C       0.63       0.858
          3 C       0.37       0.946
         13 H       0.25       0.970
          5 C       0.15       0.985
         12 H       0.11       0.986
  24.1    2 C       0.85       0.000
         11 H       0.62       0.977
          3 C       0.15       0.989
  25.1    1 C       0.81       0.000
         10 H       0.56       0.983
          2 C       0.24       0.995
  26.1    2 C       0.87       0.000
         12 H       0.60       0.980
          1 C       0.23       0.993
  27.1    1 C       0.81       0.000
          2 C       0.73       0.995
  28.1    1 C       0.87       0.000
          8 H       0.70       0.995
  29.1    1 C       0.85       0.000
          9 H       0.69       0.985
          2 C       0.16       0.995

 Number of strong pairs:          91
 Number of close pairs:           19     Rmin=      2.556
 Number of weak pairs:           127     Rmin=      3.052
 Number of distant pairs:         16     Rmin=      8.076

 Average pair domain sizes:      172    (strong pairs: 145, close pairs: 214, weak pairs: 184, distant pairs: 174)

 Smallest S-eigenvalue of domains:  0.1689D-04   Pair:  62  Symmetry: 1

 CPU-time for pair domains:             2.50 SEC

 Distance criteria for operator lists:     RMAXJ=      8.00  RMAXK=      8.00  RMAXL=     15.00
 Distance criteria for operator domains:   RDOMJ=      0.00  RDOMK=      8.00

 Using operator domains:    iopdom=5   sdom=2  kextyp=0   triptyp=2

 Number of orbital pairs:        253
 Length of K(kl) list:           253
 Number of operators K(kl):      253 (494.22 MB)   Domain sizes:    min= 136  max= 683  average= 482
 Length of J(kl) list     :      238
 Number of operators J(kl):      237 (123.19 MB)   Domain sizes:    min= 136  max= 522  average= 250
 Number of y,z intermediates:    340
 Number of operators J/K(E):     340 (307.84 MB)   Domain sizes:    min= 158  max= 522  average= 276


 File size for 4-external integrals using center quadruplets:   27.446 GB

 icfit_3ext= 2  icfit_4ext= 2
 locfit_ccsd= 0  locfit_2ext= 0  locfit_3ext= 0  locfit_4ext= 0  locfit=-1

 Number of correlated orbitals:                 22
 Number of distant pair functions:              16  (treated by MP2)
 Number of weak pair functions:                127  (treated by MP2)
 Number of strong pair functions:               91
 Total number of pair functions:               253
 Number of singly external local CSFs:        2148
 Number of doubly external local CSFs:     7848610 (all pairs)   2916702 (strong pairs)   4440568 (weak pairs)
 Total number of local CSFs:               7850759 (all pairs)   2918851 (strong pairs)

 Length of J-op  integral file:               7.34 MB
 Length of K-op  integral file:             110.07 MB

 Using 3-external integrals

 File size for 3-external integrals using MO/center triples:    12.350 GB

 AO-basis loaded. Number of functions:                 690

 Fitting-basis AUG-CC-PVTZ-MP2F loaded for 0-2-external integrals.

 Number of fitting functions:                     1478
 CPU time for 2-ext exchange integrals           18.89 sec, Elapsed time=     20.84 sec

 Using incore algorithm in dfasmbl_coul, locfit=0

 CPU time for 2-ext Coulomb integrals            21.64 sec, Elapsed time=     21.79 sec
 CPU time for DF-2ext transformation (total)     40.53 sec, Elapsed time=     42.63 sec
 Local fitting disabled for 3-ext integrals

 Fitting-basis AUG-CC-PVTZ-MP2F loaded for 3-external integrals.

 Number of fitting functions:                     1478
 CPU time for DF-3ext transformations           323.96 sec, Elapsed time=    366.98 sec (including assembly of 3ext integrals)

 Fitting-basis AUG-CC-PVTZ-MP2F loaded for 4-external integrals.

 Number of fitting functions:                     1478
 Distributing 4-ext file on two disks:          2149028109          1534649451          3683677560
 CPU time for DF-4ext transformations           410.91 sec, Elapsed time=    440.85 sec

 Treating distant pairs without multipole approximation.

 Minimum memory for LMP2:     35.76 MW, used:     92.57 MW

 Threshold for neglect of couplings:    0.10D-07     LMP2ALGO= 1   DYNAMIC=1  LIIS=0

 ITER.      SQ.NORM    CORR.ENERGY   TOTAL ENERGY   ENERGY CHANGE      VAR         THR        CPU    
   1      1.57364345    -1.40455548  -274.44766336    -1.40455548    0.57D+00    0.10D-04     0.53
   2      1.62509375    -1.44184551  -274.48495339    -0.03729003    0.14D-01    0.10D-04     7.85
   3      1.64940502    -1.46120213  -274.50431001    -0.01935662    0.61D-03    0.10D-04    15.24
   4      1.65102551    -1.46213967  -274.50524755    -0.00093753    0.99D-05    0.10D-06    22.66
   5      1.65121181    -1.46223696  -274.50534484    -0.00009729    0.30D-06    0.10D-07    29.92
   6      1.65123366    -1.46224780  -274.50535568    -0.00001084    0.86D-08    0.10D-07    37.05
   7      1.65123619    -1.46224904  -274.50535692    -0.00000123    0.24D-09    0.10D-07    44.22
   8      1.65123647    -1.46224917  -274.50535705    -0.00000013    0.68D-11    0.10D-07    51.42

 Computing Hylleraas functional

   9      1.65123647    -1.46224919  -274.50535707    -0.00000001    0.00D+00    0.10D-07    58.21

 CPU TIME FOR ITERATIVE MP2:   58.21 SEC, ELAPSED TIME:   58.52SEC

 MP2 energy of close pairs:            -0.03623006
 MP2 energy of weak pairs:             -0.06591209
 MP2 energy of distant pairs:          -0.00095930

 MP2 correlation energy:               -1.46224919
 MP2 total energy:                   -274.50535707

 LMP2 singlet pair energy              -0.95195487
 LMP2 triplet pair energy              -0.51029431

 SCS-LMP2 correlation energy:          -1.45986231   (PS=  1.200000  PT=  0.333333)
 SCS-LMP2 total energy:              -274.50297019

 Minimum Memory for K-operators:     7.98 MW Maximum memory for K-operators    64.78 MW  used:    64.78 MW
 Memory for amplitude vector:        2.14 MW

 Minimum memory for LCCSD:    17.71 MW, used:    145.09 MW, max:    142.95 MW

 ITER.      SQ.NORM     CORR.ENERGY   TOTAL ENERGY   ENERGY CHANGE        DEN1      VAR(S)    VAR(P)  DIIS     TIME
   1      1.66773827    -1.46400279  -274.50711067    -0.00175360    -1.41032080  0.93D-02  0.14D-01  1  1   898.21
   2      1.73116652    -1.47864902  -274.52175690    -0.01464623    -0.03901958  0.60D-03  0.35D-02  2  2   982.38
   3      1.77166896    -1.48401598  -274.52712386    -0.00536695    -0.01736605  0.33D-03  0.12D-02  3  3  1065.42
   4      1.80530878    -1.48582344  -274.52893132    -0.00180746    -0.01176591  0.14D-03  0.46D-03  4  4  1148.29
   5      1.82795567    -1.48655997  -274.52966785    -0.00073653    -0.00619650  0.58D-04  0.13D-03  5  5  1232.50
   6      1.83697286    -1.48674541  -274.52985329    -0.00018544    -0.00140113  0.24D-04  0.26D-04  6  6  1315.68
   7      1.84093800    -1.48680859  -274.52991647    -0.00006318    -0.00051996  0.12D-04  0.60D-05  6  1  1400.07
   8      1.84331906    -1.48683257  -274.52994045    -0.00002398    -0.00025022  0.62D-05  0.19D-05  6  2  1485.05
   9      1.84466571    -1.48685223  -274.52996011    -0.00001966    -0.00010705  0.32D-05  0.88D-06  6  3  1569.18
  10      1.84513103    -1.48686819  -274.52997607    -0.00001596    -0.00000166  0.13D-05  0.41D-06  6  4  1652.59
  11      1.84540263    -1.48688012  -274.52998800    -0.00001192     0.00001349  0.49D-06  0.15D-06  6  5  1735.03
  12      1.84564750    -1.48688560  -274.52999348    -0.00000548     0.00001125  0.16D-06  0.46D-07  6  6  1820.74
  13      1.84572870    -1.48688724  -274.52999512    -0.00000164     0.00001406  0.44D-07  0.18D-07  6  1  1903.66
  14      1.84568722    -1.48688816  -274.52999604    -0.00000093     0.00001766  0.13D-07  0.72D-08  6  3  1986.14
  15      1.84567465    -1.48688878  -274.52999666    -0.00000062     0.00000712  0.35D-08  0.16D-08  6  2  2067.73

 Norm of t1 vector:      0.17341409      S-energy:    -0.00000006
 Norm of t2 vector:      0.90310697      P-energy:    -1.48688731

 RESULTS
 =======
  LDCSD singles energy                 -0.000001469525
  LDCSD singlet pair energy            -1.122818742067
  LDCSD triplet pair energy            -0.467170019096

  LDCSD strong pair energy             -1.486887310467
  LMP2 close pair energy               -0.036230064855
  LMP2 weak pair energy                -0.065912086328
  LMP2 distant pair energy             -0.000959299513


  Reference energy                   -273.043107880177

  LDCSD correlation energy             -1.589990230688
 !LDCSD total energy                 -274.633098110866

 Program statistics:

 Available memory in ccsd:          1023804638
 Min. memory needed in ccsd:          17709953
 Max. memory used in ccsd:           145089966



 **********************************************************************************************************************************
 DATASETS  * FILE   NREC   LENGTH (MB)   RECORD NAMES
              1      19       47.72       500      610      700      900      950      970     1000      129      960     1100   
                                          VAR    BASINP    GEOM    SYMINP    ZMAT    AOBASIS   BASIS     P2S    ABASIS      S 
                                         1400     1410     1200     1210     1080     1600     1650     1700      960(1)
                                           T        V       H0       H01     AOSYM     SMH    MOLCAS    OPER    ABASIS    

              2       4       14.68       700     1000      520     2100   
                                         GEOM     BASIS   MCVARS     RHF  

 PROGRAMS   *        TOTAL  DF-LDCSD     DF-HF       INT
 CPU TIMES  *      2311.44   2067.78    242.70      0.82
 REAL TIME  *      2717.93 SEC
 DISK USED  *        51.24 GB
 **********************************************************************************************************************************

 DF-LDCSD/aug-cc-pVTZ energy=   -274.633098110866

        DF-LDCSD           DF-HF
   -274.63309811   -273.04310788
 **********************************************************************************************************************************
 Molpro calculation terminated
