
 Primary working directories    : /var/tmp/pbs.368069.bp1/molpro.BFmDIqbTFI
 Secondary working directories  : /var/tmp/pbs.368069.bp1/molpro.BFmDIqbTFI
 Wavefunction directory         : /home/lb17101/molpro_test/inp/
 Main file repository           : /home/lb17101/molpro_test/inp/

 id        : uob

 Nodes                         nprocs
 bp1-01-04-02.data.bp.acrc.priv    1

 Using customized tuning parameters: mindgm=1; mindgv=20; mindgc=4; mindgr=1; noblas=0; minvec=7
 default implementation of scratch files=df  


 Variables initialized (934), CPU time= 0.01 sec
 geomtyp=xyz
 nosym
 noorient
 geometry={
 C       2.682553142765      -1.439438488647      -0.661046844118
 C       1.943855644586      -0.231765356275      -0.093682523204
 C       0.214003469184       0.800627472803       0.703680408037
 C      -0.272761558326      -0.082655788263       1.716016419494
 C      -0.783026666974       1.019409382396      -0.183699731572
 C      -2.437479436159       1.639341869019       0.547052656472
 C      -1.095843845065      -0.587960645040      -1.347071314975
 H       2.668871645538      -3.017723564592      -1.164885544584
 H       3.688844315079      -1.056204110642      -1.589804766081
 H       1.708153655008      -1.403899383845      -1.577207273869
 H       1.747952994639      -0.377012812560       1.281012291903
 H       2.138182319334       0.217769833242      -1.272152822352
 H       0.267994238462      -0.243965199797      -0.972520432611
 H       0.147259620911      -1.583197887363       1.448767398382
 H      -0.544480461986       0.439143127216       2.822159196983
 H      -1.852931601343       0.238259806771       1.810667160475
 H      -1.233712084174       1.383762226753      -1.491973354623
 H      -3.877201474844       1.925908017288       0.125626163703
 H      -2.976558319304       1.095695877634       1.546747540189
 H      -2.075916852998       2.840743486441       0.399549121191
 H      -1.718655188426      -0.759872452733      -2.441159919966
 H      -0.314343654904      -1.300766424846      -1.886688127806
 H      -2.333583469738      -1.375180840608      -1.110818580992
 }
 basis=vdz-f12
 df-hf
 df-ccsd(t)-f12,cabs_singles=1,scale_trip=1
 Commands  initialized (763), CPU time= 0.01 sec, 617 directives.
 Default parameters read. Elapsed time= 0.11 sec

 Checking input...
 Passed
1


                                         ***  PROGRAM SYSTEM MOLPRO  ***
                                       Copyright, TTI GmbH Stuttgart, 2015
                                    Version 2019.2 linked Oct 25 2019 22:50:27


 **********************************************************************************************************************************
 LABEL *                                                                                 
  64 bit serial version                                                                  DATE: 25-Sep-20          TIME: 09:12:12  
 **********************************************************************************************************************************

 SHA1:             8dbd9ae1082e4ce945b0f27595c9eb2d4aa09004
 **********************************************************************************************************************************
 SETTING GEOMTYP        =    XYZ

 Variable memory set to 4096000000 words,  buffer space 

 ZSYMEL=NOSYM

 SETTING BASIS          =    VDZ-F12


 Recomputing integrals since basis changed


 Using spherical harmonics

 Library entry C      S cc-pVDZ-F12          selected for orbital group  1
 Library entry C      P cc-pVDZ-F12          selected for orbital group  1
 Library entry C      D cc-pVDZ-F12          selected for orbital group  1
 Library entry H      S cc-pVDZ-F12          selected for orbital group  2
 Library entry H      P cc-pVDZ-F12          selected for orbital group  2


 PROGRAM * SEWARD (Integral evaluation for generally contracted gaussian basis sets)     Author: Roland Lindh, 1990

 Geometry written to block  1 of record 700


 Point group  C1  



 ATOMIC COORDINATES

 NR  ATOM    CHARGE       X              Y              Z

   1  C       6.00    5.069290754   -2.720144517   -1.249197491
   2  C       6.00    3.673354794   -0.437973049   -0.177034312
   3  C       6.00    0.404407946    1.512966651    1.329763250
   4  C       6.00   -0.515444643   -0.156196802    3.242801058
   5  C       6.00   -1.479705949    1.926404542   -0.347142182
   6  C       6.00   -4.606168569    3.097907157    1.033779696
   7  C       6.00   -2.070844742   -1.111084591   -2.545595856
   8  H       1.00    5.043436472   -5.702671057   -2.201314646
   9  H       1.00    6.970905472   -1.995936501   -3.004295599
  10  H       1.00    3.227942587   -2.652985342   -2.980489789
  11  H       1.00    3.303152438   -0.712450961    2.420762394
  12  H       1.00    4.040578988    0.411525343   -2.404020423
  13  H       1.00    0.506435714   -0.461027412   -1.837797268
  14  H       1.00    0.278280353   -2.991810408    2.737773601
  15  H       1.00   -1.028918953    0.829860240    5.333107962
  16  H       1.00   -3.501533254    0.450245781    3.421665036
  17  H       1.00   -2.331377956    2.614931630   -2.819421025
  18  H       1.00   -7.326848917    3.639438694    0.237399043
  19  H       1.00   -5.624880017    2.070565125    2.922929235
  20  H       1.00   -3.922914310    5.368227180    0.755038412
  21  H       1.00   -3.247787609   -1.435950825   -4.613123675
  22  H       1.00   -0.594023417   -2.458092295   -3.565323844
  23  H       1.00   -4.409833647   -2.598715160   -2.099142892

 Bond lengths in Bohr (Angstrom)

  1- 2  2.882096060   1- 9  2.687189080   1-10  2.528328786   2-11  2.638358511   2-12  2.411631868
       ( 1.525139555)       ( 1.421999223)       ( 1.337933975)       ( 1.396159198)       ( 1.276180626)

  3- 4  2.700360916   3- 5  2.555939727   4-15  2.367561470   5- 6  3.613050252   5- 7  3.795916735
       ( 1.428969458)       ( 1.352545056)       ( 1.252859575)       ( 1.911943855)       ( 2.008712631)

  5-17  2.703992870   6-19  2.379514792   6-20  2.387233983   7-13  2.750623152   7-21  2.401125541
       ( 1.430891405)       ( 1.259185001)       ( 1.263269821)       ( 1.455567088)       ( 1.270620917)

  7-22  2.243942101   7-23  2.807709752
       ( 1.187443022)       ( 1.485776016)

 Bond angles

  1- 2-11  110.60185353   1- 2-12   82.04758984   2- 1- 9  111.85874161   2- 1-10   83.16318716

  3- 4-15  116.22597298   3- 5- 6  116.07621213   3- 5- 7  111.42838688   3- 5-17  150.83590357

  4- 3- 5  108.28084015   5- 6-19  122.27009448   5- 6-20   90.92071704   5- 7-13   61.04910822

  5- 7-21  133.10170697   5- 7-22  129.87009688   5- 7-23  117.49141387   6- 5- 7  110.24646695

  6- 5-17   89.67563526   7- 5-17   67.98650207   9- 1-10   93.49611345  11- 2-12  165.29611886

 13- 7-21  135.46484656  13- 7-22   69.03125817  13- 7-23  149.86679319  19- 6-20  128.74334918

 21- 7-22   81.37758029  21- 7-23   69.93397644  22- 7-23  107.60617187

 NUCLEAR CHARGE:                   58
 NUMBER OF PRIMITIVE AOS:         463
 NUMBER OF SYMMETRY AOS:          449
 NUMBER OF CONTRACTIONS:          354   (  354A   )
 NUMBER OF CORE ORBITALS:           7   (    7A   )
 NUMBER OF VALENCE ORBITALS:       44   (   44A   )


 NUCLEAR REPULSION ENERGY  298.55278751


 Eigenvalues of metric

         1 0.727E-04 0.142E-03 0.166E-03 0.184E-03 0.337E-03 0.388E-03 0.497E-03 0.537E-03


 OPERATOR DM      FOR CENTER  0  COORDINATES:    0.000000    0.000000    0.000000


 **********************************************************************************************************************************
 DATASETS  * FILE   NREC   LENGTH (MB)   RECORD NAMES
              1      18       34.97       500      610      700      900      950      970     1000      129      960     1100   
                                          VAR    BASINP    GEOM    SYMINP    ZMAT    AOBASIS   BASIS     P2S    ABASIS      S 
                                         1400     1410     1200     1210     1080     1600     1650     1700   
                                           T        V       H0       H01     AOSYM     SMH    MOLCAS    OPER   

 PROGRAMS   *        TOTAL       INT
 CPU TIMES  *         1.00      0.86
 REAL TIME  *         2.75 SEC
 DISK USED  *        35.71 MB
 **********************************************************************************************************************************


 PROGRAM * RHF-SCF (CLOSED SHELL)       Authors: W. Meyer, H.-J. Werner


 NUMBER OF ELECTRONS:      29+   29-    SPACE SYMMETRY=1    SPIN SYMMETRY: Singlet 
 CONVERGENCE THRESHOLDS:    1.00E-05 (Density)    1.00E-07 (Energy)
 INTEGRAL THRESHOLDS:       1.00E-11 (Initial)    1.00E-11 (Final)
 MAX. NUMBER OF ITERATIONS:       60
 INTERPOLATION TYPE:            DIIS
 INTERPOLATION STEPS:              2 (START)      1 (STEP)
 LEVEL SHIFTS:                  0.00 (CLOSED)  0.00 (OPEN) 




 Basis set AUG-CC-PVDZ/JKFIT generated.  Number of basis functions:   1114 

 Orbital guess generated from atomic densities. Full valence occupancy:   51
 Using density fitting in orbital guess

 Coulomb and exchange fitting
 Thresholds for fitting:       THRAO_COUL= 1.0D-14    THRAO_EXCH= 1.0D-12    THRMO= 1.0D-11    THRPROD= 1.0D-11    THRASM= 1.0D-11
                               THR2HLF=    1.0D-11

 Molecular orbital dump at record        2100.2

 Initial occupancy:  29

 ITERATION   DDIFF            GRAD            ENERGY        2-EL.EN.            DIPOLE MOMENTS         DIIS   CPU(IT)  CPU(TOT)  ORB.
    1      0.000D+00      0.000D+00      -272.86377696    777.992650   -0.54887   -1.62042   -2.92987    0      5.4     11.7     start
    2      0.000D+00      0.300D-02      -272.95565355    769.102583   -0.05785    0.71288    0.26559    1      5.2     16.9     diag
    3      0.578D-02      0.241D-02      -273.02092742    774.472636   -0.39645   -0.19723   -1.03432    2      5.2     22.2     diag
    4      0.311D-02      0.584D-03      -273.02968396    773.584504   -0.39991   -0.01819   -0.89909    3      5.3     27.4     diag
    5      0.109D-02      0.255D-03      -273.03156080    773.544589   -0.45117    0.03355   -0.79951    4      5.2     32.6     diag
    6      0.498D-03      0.115D-03      -273.03239820    773.545840   -0.50919    0.07002   -0.79167    5      5.1     37.7     diag
    7      0.382D-03      0.714D-04      -273.03277504    773.510684   -0.54905    0.08157   -0.77310    6      5.0     42.7     diag
    8      0.241D-03      0.470D-04      -273.03305319    773.500963   -0.60229    0.09468   -0.76929    7      5.2     47.9     diag
    9      0.257D-03      0.298D-04      -273.03317797    773.513988   -0.63016    0.10281   -0.75729    8      5.1     53.0     diag
   10      0.201D-03      0.164D-04      -273.03321525    773.498516   -0.64691    0.10271   -0.75597    9      5.2     58.2     orth
   11      0.111D-03      0.906D-05      -273.03322594    773.497323   -0.64869    0.10185   -0.75466    9      5.2     63.4     diag
   12      0.674D-04      0.493D-05      -273.03322804    773.499929   -0.64820    0.10046   -0.75437    9      5.2     68.6     diag
   13      0.264D-04      0.240D-05      -273.03322864    773.496597   -0.64610    0.09927   -0.75479    9      5.2     73.8     diag
   14      0.154D-04      0.133D-05      -273.03322876    773.497999   -0.64531    0.09880   -0.75520    9      5.2     79.0     diag
   15      0.567D-05      0.602D-06      -273.03322879    773.497564   -0.64489    0.09857   -0.75527    9      5.2     84.2     diag
   16      0.337D-05      0.351D-06      -273.03322879    773.497718   -0.64483    0.09856   -0.75535    0      5.2     89.4     orth

 Final occupancy:  29

 !RHF STATE  1.1 Energy              -273.033228792221
 Nuclear energy                       298.55278751
 One-electron energy                 -958.33487533
 Two-electron energy                  386.74885903
 Virial quotient                       -1.01226711
 !RHF STATE  1.1 Dipole moment         -0.64483034     0.09856279    -0.75534846
 Dipole moment /Debye                  -1.63888788     0.25050520    -1.91977855

 Orbital energies:

         1.1          2.1          3.1          4.1          5.1          6.1          7.1          8.1          9.1         10.1
    -11.378005   -11.339738   -11.335987   -11.335218   -11.313165   -11.279560   -11.270809    -1.117683    -1.016951    -0.931572

        11.1         12.1         13.1         14.1         15.1         16.1         17.1         18.1         19.1         20.1
     -0.892650    -0.850896    -0.736868    -0.671449    -0.627551    -0.607869    -0.588485    -0.559182    -0.536132    -0.507245

        21.1         22.1         23.1         24.1         25.1         26.1         27.1         28.1         29.1         30.1
     -0.495305    -0.483557    -0.454816    -0.415277    -0.394356    -0.367633    -0.339401    -0.293148    -0.278070     0.012727

        31.1
      0.037144


 HOMO     29.1    -0.278070 =      -7.5667eV
 LUMO     30.1     0.012727 =       0.3463eV
 LUMO-HOMO         0.290797 =       7.9130eV


 **********************************************************************************************************************************
 DATASETS  * FILE   NREC   LENGTH (MB)   RECORD NAMES
              1      18       34.97       500      610      700      900      950      970     1000      129      960     1100   
                                          VAR    BASINP    GEOM    SYMINP    ZMAT    AOBASIS   BASIS     P2S    ABASIS      S 
                                         1400     1410     1200     1210     1080     1600     1650     1700   
                                           T        V       H0       H01     AOSYM     SMH    MOLCAS    OPER   

              2       4        6.19       700     1000      520     2100   
                                         GEOM     BASIS   MCVARS     RHF  

 PROGRAMS   *        TOTAL     DF-HF       INT
 CPU TIMES  *        90.47     89.47      0.86
 REAL TIME  *       100.62 SEC
 DISK USED  *       209.29 MB
 **********************************************************************************************************************************


 PROGRAM * CCSD (Closed-shell coupled cluster)     Authors: C. Hampel, H.-J. Werner, 1991, M. Deegan, P.J. Knowles, 1992

                    Density fitting coupled cluster methods (ITF), W. Gyorffy, 2015

                                  CCSD-F12 implementation by  H.-J. Werner, 2007

                   Density fitting integral evaluation by F.R. Manby, 2003,2007, G. Knizia, 2010


 Basis set CC-PVDZ-F12/OPTRI generated.  Number of basis functions:   814 

 Generating union of orbital basis set VDZ-F12 and corresponding OPTRI basis

 Basis set CC-PVDZ-F12_CABS generated.   Number of basis functions:   1168 
 Basis set AUG-CC-PVDZ/MP2FIT generated. Number of basis functions:   872 

 Convergence thresholds:  THRVAR = 1.00D-08  THRDEN = 1.00D-06

 CCSD(T)     terms to be evaluated (factor= 1.000)


 Number of core orbitals:           7 (   7 )
 Number of closed-shell orbitals:  22 (  22 )
 Number of external orbitals:     325 ( 325 )

 Molecular orbitals read from record     2100.2  Type=RHF/CANONICAL (state 1.1)
 Ansatz: F12/3*C(FIX,HY1)
 F12b method
 Enter DF-CCSD-F12 [ITF]

 Geminal basis:    OPTFULL  GEM_TYPE=SLATER  BETA=1.0  NGEM=6

 Optimizing Gaussian exponents for each gem_beta

 Geminal optimization for beta= 1.0000
 Weight function:   m=0, omega= 1.4646

 Augmented Hessian optimization of geminal fit. Trust ratio= 0.40000
 Convergence reached after   2 iterations. Final gradient= 8.53D-16, Step= 4.26D-06, Delta= 1.28D-09

 Alpha:                 0.19532     0.81920     2.85917     9.50073    35.69989   197.79328
 Coeff:                 0.27070     0.30552     0.18297     0.10986     0.06810     0.04224



  Reference energy:                  -273.033228792221
  MP2 correlation energy:              -1.366777103772

  !MP2 total energy:                 -274.400005895994

  DF-MP2-F12 energy corrections:
  ==============================
  Approx.                                    Total
  DF-MP2-F12/3*C(DX,FIX):              -0.195103718925
  DF-MP2-F12/3*C(FIX):                 -0.203434440844

  DF-MP2-F12 correlation energies:
  ================================
  Approx.                                    Ecorr
  DF-MP2:                              -1.366777103772
  DF-MP2-F12/3*C(DX,FIX):              -1.561880822698
  DF-MP2-F12/3*C(FIX):                 -1.570211544616

  Reference energy:                  -273.033228792221
  MP2-F12 correlation energy:          -1.570211544616

  !MP2-F12 total energy:             -274.603440336837
  MP2 correlation energy:              -1.366777103772
  PT2 correlation energy:              -1.366777104673

 Transformed 3-ext integrals are computed and stored!

 Transformed 4-ext integrals are computed and stored!

 ITER.      SQ.NORM     CORR.ENERGY   TOTAL ENERGY   ENERGY CHANGE        DEN1      VAR(S)    VAR(P)  DIIS     TIME
   1      1.62988202    -1.38416093  -274.41738972    -0.01738382     0.04817566  2.26e-02  2.08e-02  1  1  1283.68
   2      1.71122053    -1.38814545  -274.42137424    -0.00398452    -0.05653699  1.96e-03  4.90e-03  2  2  2572.94
   3      1.73799469    -1.39296832  -274.42619711    -0.00482287    -0.00390140  2.89e-04  1.05e-03  3  3  3860.19
   4      1.77062500    -1.39432408  -274.42755287    -0.00135576    -0.01018046  2.84e-05  2.79e-04  4  4  5149.43
   5      1.78740188    -1.39458664  -274.42781543    -0.00026256    -0.00321631  2.55e-05  5.67e-05  5  5  6427.29
   6      1.79772118    -1.39461487  -274.42784366    -0.00002823    -0.00142705  8.29e-06  2.15e-05  6  0  7725.94
   7      1.80311602    -1.39461464  -274.42784343     0.00000024    -0.00040734  7.35e-06  9.19e-06  6  1  9019.91
   8      1.80942946    -1.39465044  -274.42787924    -0.00003581    -0.00018274  2.74e-06  4.72e-06  6  2 10314.58
   9      1.81510210    -1.39465929  -274.42788808    -0.00000885    -0.00008967  1.41e-06  1.96e-06  6  3 11609.54
  10      1.82019729    -1.39464515  -274.42787394     0.00001414    -0.00006369  3.30e-07  7.41e-07  6  4 12896.59
  11      1.82298558    -1.39463256  -274.42786135     0.00001259    -0.00001871  1.08e-07  2.20e-07  6  5 14177.80
  12      1.82404255    -1.39462151  -274.42785030     0.00001105    -0.00000679  2.68e-08  5.89e-08  6  0 15457.69
  13      1.82436208    -1.39462004  -274.42784883     0.00000148     0.00000400  8.03e-09  1.76e-08  6  1 16727.71
  14      1.82446882    -1.39461961  -274.42784840     0.00000042     0.00000247  2.68e-09  5.63e-09       18013.86

 Norm of t1 vector:      0.27956982     S-energy:      0.00000063   T1 diagnostic:  0.02980224

 Time per iteration:                   1286.72 sec


  F12b       energy corrections:
  ==============================
  CC-F12b:                              0.032323036834
 RESULTS
 =======

  Reference energy:                  -273.033228792221
  CCSD correlation energy:             -1.394619610983
 !CCSD total energy:                 -274.427848403205

  Triples (T) contribution:            -0.095734650261
  Total correlation energy:            -1.490354261244
  CCSD[T] total energy:              -274.529398840620
  CCSD(T) total energy:              -274.523583053465
  DF-MP2-F12 energy corrections:
  ==============================
  Approx.                                    Total
  DF-MP2-F12/3*C(DX,FIX):              -0.195103718925
  DF-MP2-F12/3*C(FIX):                 -0.203434440844

  DF-MP2-F12 correlation energies:
  ================================
  Approx.                                    Ecorr
  DF-MP2:                              -1.366777103772
  DF-MP2-F12/3*C(DX,FIX):              -1.561880822698
  DF-MP2-F12/3*C(FIX):                 -1.570211544616

  Reference energy:                  -273.033228792221
  MP2-F12 correlation energy:          -1.570211544616

  !MP2-F12 total energy:             -274.603440336837

  CCSD(T)-F12 correlation energies:
  ================================
  Approx.                                    Ecorr
  CCSD(T):                             -1.490354261244
  CCSD(T)-F12/3*C(DX,FIX):             -1.685457980169
  CCSD(T)-F12/3*C(FIX):                -1.661465665254

  Reference energy:                  -273.033228792221
  CCSD(T)-F12 correlation energy:      -1.661465665254

  !CCSD(T)-F12 total energy:         -274.694694457475





 **********************************************************************************************************************************
 DATASETS  * FILE   NREC   LENGTH (MB)   RECORD NAMES
              1      19       35.01       500      610      700      900      950      970     1000      129      960     1100   
                                          VAR    BASINP    GEOM    SYMINP    ZMAT    AOBASIS   BASIS     P2S    ABASIS      S 
                                         1400     1410     1200     1210     1080     1600     1650     1700      960(1)
                                           T        V       H0       H01     AOSYM     SMH    MOLCAS    OPER    ABASIS    

              2       4        6.19       700     1000      520     2100   
                                         GEOM     BASIS   MCVARS     RHF  

 PROGRAMS   *        TOTAL   CCSD(T)     DF-HF       INT
 CPU TIMES  *     43254.50  43164.03     89.47      0.86
 REAL TIME  *     46907.09 SEC
 DISK USED  *       144.45 GB
 **********************************************************************************************************************************

 DF-CCSD(T)-F12/cc-pVDZ-F12 energy=   -274.694694457475

  DF-CCSD(T)-F12           DF-HF
   -274.69469446   -273.03322879
 **********************************************************************************************************************************
 Molpro calculation terminated
